 TITLE = "Aerodynamic Grid"
 VARIABLES = "X" "Y" "Z" "n(X)" "n(Y)" "n(Z)" "Cp"


 ZONE T = "AERO - blade1 n=           0 " , STRANDID =            1 
  , SOLUTIONTIME =   0.000000000000000E+000  , F = FEPOINT, N =          256 
  , E =          204  , ET = QUADRILATERAL , C = BLUE , PASSIVEVARLIST=[4-7]
   160.000 -3005.000 -5054.813
   150.000 -3005.000 -5054.813
   140.000 -3005.000 -5054.813
   130.000 -3005.000 -5054.813
   120.000 -3005.000 -5054.813
   110.000 -3005.000 -5054.813
   100.000 -3005.000 -5054.813
   160.000 -3015.000 -5072.133
   150.000 -3015.000 -5072.133
   140.000 -3015.000 -5072.133
   130.000 -3015.000 -5072.133
   120.000 -3015.000 -5072.133
   110.000 -3015.000 -5072.133
   100.000 -3015.000 -5072.133
   160.000 -3025.000 -5089.454
   150.000 -3025.000 -5089.454
   140.000 -3025.000 -5089.454
   130.000 -3025.000 -5089.454
   120.000 -3025.000 -5089.454
   110.000 -3025.000 -5089.454
   100.000 -3025.000 -5089.454
   160.000 -3035.000 -5106.774
   150.000 -3035.000 -5106.774
   140.000 -3035.000 -5106.774
   130.000 -3035.000 -5106.774
   120.000 -3035.000 -5106.774
   110.000 -3035.000 -5106.774
   100.000 -3035.000 -5106.774
   160.000 -3045.000 -5124.095
   150.000 -3045.000 -5124.095
   140.000 -3045.000 -5124.095
   130.000 -3045.000 -5124.095
   120.000 -3045.000 -5124.095
   110.000 -3045.000 -5124.095
   100.000 -3045.000 -5124.095
   160.000 -3055.000 -5141.415
   150.000 -3055.000 -5141.415
   140.000 -3055.000 -5141.415
   130.000 -3055.000 -5141.415
   120.000 -3055.000 -5141.415
   110.000 -3055.000 -5141.415
   100.000 -3055.000 -5141.415
   160.000 -3065.000 -5158.736
   150.000 -3065.000 -5158.736
   140.000 -3065.000 -5158.736
   130.000 -3065.000 -5158.736
   120.000 -3065.000 -5158.736
   110.000 -3065.000 -5158.736
   100.000 -3065.000 -5158.736
   160.000 -3075.000 -5176.056
   150.000 -3075.000 -5176.056
   140.000 -3075.000 -5176.056
   130.000 -3075.000 -5176.056
   120.000 -3075.000 -5176.056
   110.000 -3075.000 -5176.056
   100.000 -3075.000 -5176.056
   160.000 -3085.000 -5193.377
   150.000 -3085.000 -5193.377
   140.000 -3085.000 -5193.377
   130.000 -3085.000 -5193.377
   120.000 -3085.000 -5193.377
   110.000 -3085.000 -5193.377
   100.000 -3085.000 -5193.377
   160.000 -3095.000 -5210.697
   150.000 -3095.000 -5210.697
   140.000 -3095.000 -5210.697
   130.000 -3095.000 -5210.697
   120.000 -3095.000 -5210.697
   110.000 -3095.000 -5210.697
   100.000 -3095.000 -5210.697
   160.000 -3105.000 -5228.018
   150.000 -3105.000 -5228.018
   140.000 -3105.000 -5228.018
   130.000 -3105.000 -5228.018
   120.000 -3105.000 -5228.018
   110.000 -3105.000 -5228.018
   100.000 -3105.000 -5228.018
   160.000 -3115.000 -5245.338
   150.000 -3115.000 -5245.338
   140.000 -3115.000 -5245.338
   130.000 -3115.000 -5245.338
   120.000 -3115.000 -5245.338
   110.000 -3115.000 -5245.338
   100.000 -3115.000 -5245.338
   160.000 -3125.000 -5262.659
   150.000 -3125.000 -5262.659
   140.000 -3125.000 -5262.659
   130.000 -3125.000 -5262.659
   120.000 -3125.000 -5262.659
   110.000 -3125.000 -5262.659
   100.000 -3125.000 -5262.659
   160.000 -3135.000 -5279.979
   150.000 -3135.000 -5279.979
   140.000 -3135.000 -5279.979
   130.000 -3135.000 -5279.979
   120.000 -3135.000 -5279.979
   110.000 -3135.000 -5279.979
   100.000 -3135.000 -5279.979
   160.000 -3145.000 -5297.300
   150.000 -3145.000 -5297.300
   140.000 -3145.000 -5297.300
   130.000 -3145.000 -5297.300
   120.000 -3145.000 -5297.300
   110.000 -3145.000 -5297.300
   100.000 -3145.000 -5297.300
   160.000 -3155.000 -5314.620
   150.000 -3155.000 -5314.620
   140.000 -3155.000 -5314.620
   130.000 -3155.000 -5314.620
   120.000 -3155.000 -5314.620
   110.000 -3155.000 -5314.620
   100.000 -3155.000 -5314.620
   160.000 -3165.000 -5331.941
   150.000 -3165.000 -5331.941
   140.000 -3165.000 -5331.941
   130.000 -3165.000 -5331.941
   120.000 -3165.000 -5331.941
   110.000 -3165.000 -5331.941
   100.000 -3165.000 -5331.941
   160.000 -3175.000 -5349.261
   150.000 -3175.000 -5349.261
   140.000 -3175.000 -5349.261
   130.000 -3175.000 -5349.261
   120.000 -3175.000 -5349.261
   110.000 -3175.000 -5349.261
   100.000 -3175.000 -5349.261
   160.000 -3185.000 -5366.582
   150.000 -3185.000 -5366.582
   140.000 -3185.000 -5366.582
   130.000 -3185.000 -5366.582
   120.000 -3185.000 -5366.582
   110.000 -3185.000 -5366.582
   100.000 -3185.000 -5366.582
   160.000 -3195.000 -5383.902
   150.000 -3195.000 -5383.902
   140.000 -3195.000 -5383.902
   130.000 -3195.000 -5383.902
   120.000 -3195.000 -5383.902
   110.000 -3195.000 -5383.902
   100.000 -3195.000 -5383.902
   160.000 -3205.000 -5401.223
   150.000 -3205.000 -5401.223
   140.000 -3205.000 -5401.223
   130.000 -3205.000 -5401.223
   120.000 -3205.000 -5401.223
   110.000 -3205.000 -5401.223
   100.000 -3205.000 -5401.223
   160.000 -3215.000 -5418.543
   150.000 -3215.000 -5418.543
   140.000 -3215.000 -5418.543
   130.000 -3215.000 -5418.543
   120.000 -3215.000 -5418.543
   110.000 -3215.000 -5418.543
   100.000 -3215.000 -5418.543
   160.000 -3225.000 -5435.864
   150.000 -3225.000 -5435.864
   140.000 -3225.000 -5435.864
   130.000 -3225.000 -5435.864
   120.000 -3225.000 -5435.864
   110.000 -3225.000 -5435.864
   100.000 -3225.000 -5435.864
   160.000 -3235.000 -5453.184
   150.000 -3235.000 -5453.184
   140.000 -3235.000 -5453.184
   130.000 -3235.000 -5453.184
   120.000 -3235.000 -5453.184
   110.000 -3235.000 -5453.184
   100.000 -3235.000 -5453.184
   160.000 -3245.000 -5470.505
   150.000 -3245.000 -5470.505
   140.000 -3245.000 -5470.505
   130.000 -3245.000 -5470.505
   120.000 -3245.000 -5470.505
   110.000 -3245.000 -5470.505
   100.000 -3245.000 -5470.505
   160.000 -3255.000 -5487.825
   150.000 -3255.000 -5487.825
   140.000 -3255.000 -5487.825
   130.000 -3255.000 -5487.825
   120.000 -3255.000 -5487.825
   110.000 -3255.000 -5487.825
   100.000 -3255.000 -5487.825
   160.000 -3265.000 -5505.146
   150.000 -3265.000 -5505.146
   140.000 -3265.000 -5505.146
   130.000 -3265.000 -5505.146
   120.000 -3265.000 -5505.146
   110.000 -3265.000 -5505.146
   100.000 -3265.000 -5505.146
   160.000 -3275.000 -5522.466
   150.000 -3275.000 -5522.466
   140.000 -3275.000 -5522.466
   130.000 -3275.000 -5522.466
   120.000 -3275.000 -5522.466
   110.000 -3275.000 -5522.466
   100.000 -3275.000 -5522.466
   160.000 -3285.000 -5539.787
   150.000 -3285.000 -5539.787
   140.000 -3285.000 -5539.787
   130.000 -3285.000 -5539.787
   120.000 -3285.000 -5539.787
   110.000 -3285.000 -5539.787
   100.000 -3285.000 -5539.787
   160.000 -3295.000 -5557.107
   150.000 -3295.000 -5557.107
   140.000 -3295.000 -5557.107
   130.000 -3295.000 -5557.107
   120.000 -3295.000 -5557.107
   110.000 -3295.000 -5557.107
   100.000 -3295.000 -5557.107
   160.000 -3305.000 -5574.428
   150.000 -3305.000 -5574.428
   140.000 -3305.000 -5574.428
   130.000 -3305.000 -5574.428
   120.000 -3305.000 -5574.428
   110.000 -3305.000 -5574.428
   100.000 -3305.000 -5574.428
   160.000 -3000.000 -5046.152
   155.981 -3004.330 -5043.652
   145.000 -3004.330 -5043.652
   130.000 -3004.330 -5043.652
   115.000 -3004.330 -5043.652
   104.019 -3004.330 -5043.652
   100.000 -3000.000 -5046.152
   104.019 -2995.670 -5048.652
   115.000 -2995.670 -5048.652
   130.000 -2995.670 -5048.652
   145.000 -2995.670 -5048.652
   155.981 -2995.670 -5048.652
   160.000 -3000.000 -5046.152
   160.000 -3002.500 -5050.483
   155.981 -3006.830 -5047.983
   145.000 -3006.830 -5047.983
   130.000 -3006.830 -5047.983
   115.000 -3006.830 -5047.983
   104.019 -3006.830 -5047.983
   100.000 -3002.500 -5050.483
   104.019 -2998.170 -5052.983
   115.000 -2998.170 -5052.983
   130.000 -2998.170 -5052.983
   145.000 -2998.170 -5052.983
   155.981 -2998.170 -5052.983
   160.000 -3002.500 -5050.483
   160.000 -3005.000 -5054.813
   150.000 -3005.000 -5054.813
   140.000 -3005.000 -5054.813
   130.000 -3005.000 -5054.813
   120.000 -3005.000 -5054.813
   110.000 -3005.000 -5054.813
   100.000 -3005.000 -5054.813
   110.000 -3005.000 -5054.813
   120.000 -3005.000 -5054.813
   130.000 -3005.000 -5054.813
   140.000 -3005.000 -5054.813
   150.000 -3005.000 -5054.813
   160.000 -3005.000 -5054.813


     1     2     9     8
     2     3    10     9
     3     4    11    10
     4     5    12    11
     5     6    13    12
     6     7    14    13
     8     9    16    15
     9    10    17    16
    10    11    18    17
    11    12    19    18
    12    13    20    19
    13    14    21    20
    15    16    23    22
    16    17    24    23
    17    18    25    24
    18    19    26    25
    19    20    27    26
    20    21    28    27
    22    23    30    29
    23    24    31    30
    24    25    32    31
    25    26    33    32
    26    27    34    33
    27    28    35    34
    29    30    37    36
    30    31    38    37
    31    32    39    38
    32    33    40    39
    33    34    41    40
    34    35    42    41
    36    37    44    43
    37    38    45    44
    38    39    46    45
    39    40    47    46
    40    41    48    47
    41    42    49    48
    43    44    51    50
    44    45    52    51
    45    46    53    52
    46    47    54    53
    47    48    55    54
    48    49    56    55
    50    51    58    57
    51    52    59    58
    52    53    60    59
    53    54    61    60
    54    55    62    61
    55    56    63    62
    57    58    65    64
    58    59    66    65
    59    60    67    66
    60    61    68    67
    61    62    69    68
    62    63    70    69
    64    65    72    71
    65    66    73    72
    66    67    74    73
    67    68    75    74
    68    69    76    75
    69    70    77    76
    71    72    79    78
    72    73    80    79
    73    74    81    80
    74    75    82    81
    75    76    83    82
    76    77    84    83
    78    79    86    85
    79    80    87    86
    80    81    88    87
    81    82    89    88
    82    83    90    89
    83    84    91    90
    85    86    93    92
    86    87    94    93
    87    88    95    94
    88    89    96    95
    89    90    97    96
    90    91    98    97
    92    93   100    99
    93    94   101   100
    94    95   102   101
    95    96   103   102
    96    97   104   103
    97    98   105   104
    99   100   107   106
   100   101   108   107
   101   102   109   108
   102   103   110   109
   103   104   111   110
   104   105   112   111
   106   107   114   113
   107   108   115   114
   108   109   116   115
   109   110   117   116
   110   111   118   117
   111   112   119   118
   113   114   121   120
   114   115   122   121
   115   116   123   122
   116   117   124   123
   117   118   125   124
   118   119   126   125
   120   121   128   127
   121   122   129   128
   122   123   130   129
   123   124   131   130
   124   125   132   131
   125   126   133   132
   127   128   135   134
   128   129   136   135
   129   130   137   136
   130   131   138   137
   131   132   139   138
   132   133   140   139
   134   135   142   141
   135   136   143   142
   136   137   144   143
   137   138   145   144
   138   139   146   145
   139   140   147   146
   141   142   149   148
   142   143   150   149
   143   144   151   150
   144   145   152   151
   145   146   153   152
   146   147   154   153
   148   149   156   155
   149   150   157   156
   150   151   158   157
   151   152   159   158
   152   153   160   159
   153   154   161   160
   155   156   163   162
   156   157   164   163
   157   158   165   164
   158   159   166   165
   159   160   167   166
   160   161   168   167
   162   163   170   169
   163   164   171   170
   164   165   172   171
   165   166   173   172
   166   167   174   173
   167   168   175   174
   169   170   177   176
   170   171   178   177
   171   172   179   178
   172   173   180   179
   173   174   181   180
   174   175   182   181
   176   177   184   183
   177   178   185   184
   178   179   186   185
   179   180   187   186
   180   181   188   187
   181   182   189   188
   183   184   191   190
   184   185   192   191
   185   186   193   192
   186   187   194   193
   187   188   195   194
   188   189   196   195
   190   191   198   197
   191   192   199   198
   192   193   200   199
   193   194   201   200
   194   195   202   201
   195   196   203   202
   197   198   205   204
   198   199   206   205
   199   200   207   206
   200   201   208   207
   201   202   209   208
   202   203   210   209
   204   205   212   211
   205   206   213   212
   206   207   214   213
   207   208   215   214
   208   209   216   215
   209   210   217   216
   218   219   232   231
   219   220   233   232
   220   221   234   233
   221   222   235   234
   222   223   236   235
   223   224   237   236
   224   225   238   237
   225   226   239   238
   226   227   240   239
   227   228   241   240
   228   229   242   241
   229   230   243   242
   231   232   245   244
   232   233   246   245
   233   234   247   246
   234   235   248   247
   235   236   249   248
   236   237   250   249
   237   238   251   250
   238   239   252   251
   239   240   253   252
   240   241   254   253
   241   242   255   254
   242   243   256   255


 ZONE T = "AERO - blade2 n=           0 " , STRANDID =            2 
  , SOLUTIONTIME =   0.000000000000000E+000  , F = FEPOINT, N =          256 
  , E =          204  , ET = QUADRILATERAL , C = BLUE , PASSIVEVARLIST=[4-7]
   160.000  6010.000   150.000
   150.000  6010.000   150.000
   140.000  6010.000   150.000
   130.000  6010.000   150.000
   120.000  6010.000   150.000
   110.000  6010.000   150.000
   100.000  6010.000   150.000
   160.000  6030.000   150.000
   150.000  6030.000   150.000
   140.000  6030.000   150.000
   130.000  6030.000   150.000
   120.000  6030.000   150.000
   110.000  6030.000   150.000
   100.000  6030.000   150.000
   160.000  6050.000   150.000
   150.000  6050.000   150.000
   140.000  6050.000   150.000
   130.000  6050.000   150.000
   120.000  6050.000   150.000
   110.000  6050.000   150.000
   100.000  6050.000   150.000
   160.000  6070.000   150.000
   150.000  6070.000   150.000
   140.000  6070.000   150.000
   130.000  6070.000   150.000
   120.000  6070.000   150.000
   110.000  6070.000   150.000
   100.000  6070.000   150.000
   160.000  6090.000   150.000
   150.000  6090.000   150.000
   140.000  6090.000   150.000
   130.000  6090.000   150.000
   120.000  6090.000   150.000
   110.000  6090.000   150.000
   100.000  6090.000   150.000
   160.000  6110.000   150.000
   150.000  6110.000   150.000
   140.000  6110.000   150.000
   130.000  6110.000   150.000
   120.000  6110.000   150.000
   110.000  6110.000   150.000
   100.000  6110.000   150.000
   160.000  6130.000   150.000
   150.000  6130.000   150.000
   140.000  6130.000   150.000
   130.000  6130.000   150.000
   120.000  6130.000   150.000
   110.000  6130.000   150.000
   100.000  6130.000   150.000
   160.000  6150.000   150.000
   150.000  6150.000   150.000
   140.000  6150.000   150.000
   130.000  6150.000   150.000
   120.000  6150.000   150.000
   110.000  6150.000   150.000
   100.000  6150.000   150.000
   160.000  6170.000   150.000
   150.000  6170.000   150.000
   140.000  6170.000   150.000
   130.000  6170.000   150.000
   120.000  6170.000   150.000
   110.000  6170.000   150.000
   100.000  6170.000   150.000
   160.000  6190.000   150.000
   150.000  6190.000   150.000
   140.000  6190.000   150.000
   130.000  6190.000   150.000
   120.000  6190.000   150.000
   110.000  6190.000   150.000
   100.000  6190.000   150.000
   160.000  6210.000   150.000
   150.000  6210.000   150.000
   140.000  6210.000   150.000
   130.000  6210.000   150.000
   120.000  6210.000   150.000
   110.000  6210.000   150.000
   100.000  6210.000   150.000
   160.000  6230.000   150.000
   150.000  6230.000   150.000
   140.000  6230.000   150.000
   130.000  6230.000   150.000
   120.000  6230.000   150.000
   110.000  6230.000   150.000
   100.000  6230.000   150.000
   160.000  6250.000   150.000
   150.000  6250.000   150.000
   140.000  6250.000   150.000
   130.000  6250.000   150.000
   120.000  6250.000   150.000
   110.000  6250.000   150.000
   100.000  6250.000   150.000
   160.000  6270.000   150.000
   150.000  6270.000   150.000
   140.000  6270.000   150.000
   130.000  6270.000   150.000
   120.000  6270.000   150.000
   110.000  6270.000   150.000
   100.000  6270.000   150.000
   160.000  6290.000   150.000
   150.000  6290.000   150.000
   140.000  6290.000   150.000
   130.000  6290.000   150.000
   120.000  6290.000   150.000
   110.000  6290.000   150.000
   100.000  6290.000   150.000
   160.000  6310.000   150.000
   150.000  6310.000   150.000
   140.000  6310.000   150.000
   130.000  6310.000   150.000
   120.000  6310.000   150.000
   110.000  6310.000   150.000
   100.000  6310.000   150.000
   160.000  6330.000   150.000
   150.000  6330.000   150.000
   140.000  6330.000   150.000
   130.000  6330.000   150.000
   120.000  6330.000   150.000
   110.000  6330.000   150.000
   100.000  6330.000   150.000
   160.000  6350.000   150.000
   150.000  6350.000   150.000
   140.000  6350.000   150.000
   130.000  6350.000   150.000
   120.000  6350.000   150.000
   110.000  6350.000   150.000
   100.000  6350.000   150.000
   160.000  6370.000   150.000
   150.000  6370.000   150.000
   140.000  6370.000   150.000
   130.000  6370.000   150.000
   120.000  6370.000   150.000
   110.000  6370.000   150.000
   100.000  6370.000   150.000
   160.000  6390.000   150.000
   150.000  6390.000   150.000
   140.000  6390.000   150.000
   130.000  6390.000   150.000
   120.000  6390.000   150.000
   110.000  6390.000   150.000
   100.000  6390.000   150.000
   160.000  6410.000   150.000
   150.000  6410.000   150.000
   140.000  6410.000   150.000
   130.000  6410.000   150.000
   120.000  6410.000   150.000
   110.000  6410.000   150.000
   100.000  6410.000   150.000
   160.000  6430.000   150.000
   150.000  6430.000   150.000
   140.000  6430.000   150.000
   130.000  6430.000   150.000
   120.000  6430.000   150.000
   110.000  6430.000   150.000
   100.000  6430.000   150.000
   160.000  6450.000   150.000
   150.000  6450.000   150.000
   140.000  6450.000   150.000
   130.000  6450.000   150.000
   120.000  6450.000   150.000
   110.000  6450.000   150.000
   100.000  6450.000   150.000
   160.000  6470.000   150.000
   150.000  6470.000   150.000
   140.000  6470.000   150.000
   130.000  6470.000   150.000
   120.000  6470.000   150.000
   110.000  6470.000   150.000
   100.000  6470.000   150.000
   160.000  6490.000   150.000
   150.000  6490.000   150.000
   140.000  6490.000   150.000
   130.000  6490.000   150.000
   120.000  6490.000   150.000
   110.000  6490.000   150.000
   100.000  6490.000   150.000
   160.000  6510.000   150.000
   150.000  6510.000   150.000
   140.000  6510.000   150.000
   130.000  6510.000   150.000
   120.000  6510.000   150.000
   110.000  6510.000   150.000
   100.000  6510.000   150.000
   160.000  6530.000   150.000
   150.000  6530.000   150.000
   140.000  6530.000   150.000
   130.000  6530.000   150.000
   120.000  6530.000   150.000
   110.000  6530.000   150.000
   100.000  6530.000   150.000
   160.000  6550.000   150.000
   150.000  6550.000   150.000
   140.000  6550.000   150.000
   130.000  6550.000   150.000
   120.000  6550.000   150.000
   110.000  6550.000   150.000
   100.000  6550.000   150.000
   160.000  6570.000   150.000
   150.000  6570.000   150.000
   140.000  6570.000   150.000
   130.000  6570.000   150.000
   120.000  6570.000   150.000
   110.000  6570.000   150.000
   100.000  6570.000   150.000
   160.000  6590.000   150.000
   150.000  6590.000   150.000
   140.000  6590.000   150.000
   130.000  6590.000   150.000
   120.000  6590.000   150.000
   110.000  6590.000   150.000
   100.000  6590.000   150.000
   160.000  6610.000   150.000
   150.000  6610.000   150.000
   140.000  6610.000   150.000
   130.000  6610.000   150.000
   120.000  6610.000   150.000
   110.000  6610.000   150.000
   100.000  6610.000   150.000
   160.000  6000.000   150.000
   155.981  6000.000   145.000
   145.000  6000.000   145.000
   130.000  6000.000   145.000
   115.000  6000.000   145.000
   104.019  6000.000   145.000
   100.000  6000.000   150.000
   104.019  6000.000   155.000
   115.000  6000.000   155.000
   130.000  6000.000   155.000
   145.000  6000.000   155.000
   155.981  6000.000   155.000
   160.000  6000.000   150.000
   160.000  6005.000   150.000
   155.981  6005.000   145.000
   145.000  6005.000   145.000
   130.000  6005.000   145.000
   115.000  6005.000   145.000
   104.019  6005.000   145.000
   100.000  6005.000   150.000
   104.019  6005.000   155.000
   115.000  6005.000   155.000
   130.000  6005.000   155.000
   145.000  6005.000   155.000
   155.981  6005.000   155.000
   160.000  6005.000   150.000
   160.000  6010.000   150.000
   150.000  6010.000   150.000
   140.000  6010.000   150.000
   130.000  6010.000   150.000
   120.000  6010.000   150.000
   110.000  6010.000   150.000
   100.000  6010.000   150.000
   110.000  6010.000   150.000
   120.000  6010.000   150.000
   130.000  6010.000   150.000
   140.000  6010.000   150.000
   150.000  6010.000   150.000
   160.000  6010.000   150.000


     1     2     9     8
     2     3    10     9
     3     4    11    10
     4     5    12    11
     5     6    13    12
     6     7    14    13
     8     9    16    15
     9    10    17    16
    10    11    18    17
    11    12    19    18
    12    13    20    19
    13    14    21    20
    15    16    23    22
    16    17    24    23
    17    18    25    24
    18    19    26    25
    19    20    27    26
    20    21    28    27
    22    23    30    29
    23    24    31    30
    24    25    32    31
    25    26    33    32
    26    27    34    33
    27    28    35    34
    29    30    37    36
    30    31    38    37
    31    32    39    38
    32    33    40    39
    33    34    41    40
    34    35    42    41
    36    37    44    43
    37    38    45    44
    38    39    46    45
    39    40    47    46
    40    41    48    47
    41    42    49    48
    43    44    51    50
    44    45    52    51
    45    46    53    52
    46    47    54    53
    47    48    55    54
    48    49    56    55
    50    51    58    57
    51    52    59    58
    52    53    60    59
    53    54    61    60
    54    55    62    61
    55    56    63    62
    57    58    65    64
    58    59    66    65
    59    60    67    66
    60    61    68    67
    61    62    69    68
    62    63    70    69
    64    65    72    71
    65    66    73    72
    66    67    74    73
    67    68    75    74
    68    69    76    75
    69    70    77    76
    71    72    79    78
    72    73    80    79
    73    74    81    80
    74    75    82    81
    75    76    83    82
    76    77    84    83
    78    79    86    85
    79    80    87    86
    80    81    88    87
    81    82    89    88
    82    83    90    89
    83    84    91    90
    85    86    93    92
    86    87    94    93
    87    88    95    94
    88    89    96    95
    89    90    97    96
    90    91    98    97
    92    93   100    99
    93    94   101   100
    94    95   102   101
    95    96   103   102
    96    97   104   103
    97    98   105   104
    99   100   107   106
   100   101   108   107
   101   102   109   108
   102   103   110   109
   103   104   111   110
   104   105   112   111
   106   107   114   113
   107   108   115   114
   108   109   116   115
   109   110   117   116
   110   111   118   117
   111   112   119   118
   113   114   121   120
   114   115   122   121
   115   116   123   122
   116   117   124   123
   117   118   125   124
   118   119   126   125
   120   121   128   127
   121   122   129   128
   122   123   130   129
   123   124   131   130
   124   125   132   131
   125   126   133   132
   127   128   135   134
   128   129   136   135
   129   130   137   136
   130   131   138   137
   131   132   139   138
   132   133   140   139
   134   135   142   141
   135   136   143   142
   136   137   144   143
   137   138   145   144
   138   139   146   145
   139   140   147   146
   141   142   149   148
   142   143   150   149
   143   144   151   150
   144   145   152   151
   145   146   153   152
   146   147   154   153
   148   149   156   155
   149   150   157   156
   150   151   158   157
   151   152   159   158
   152   153   160   159
   153   154   161   160
   155   156   163   162
   156   157   164   163
   157   158   165   164
   158   159   166   165
   159   160   167   166
   160   161   168   167
   162   163   170   169
   163   164   171   170
   164   165   172   171
   165   166   173   172
   166   167   174   173
   167   168   175   174
   169   170   177   176
   170   171   178   177
   171   172   179   178
   172   173   180   179
   173   174   181   180
   174   175   182   181
   176   177   184   183
   177   178   185   184
   178   179   186   185
   179   180   187   186
   180   181   188   187
   181   182   189   188
   183   184   191   190
   184   185   192   191
   185   186   193   192
   186   187   194   193
   187   188   195   194
   188   189   196   195
   190   191   198   197
   191   192   199   198
   192   193   200   199
   193   194   201   200
   194   195   202   201
   195   196   203   202
   197   198   205   204
   198   199   206   205
   199   200   207   206
   200   201   208   207
   201   202   209   208
   202   203   210   209
   204   205   212   211
   205   206   213   212
   206   207   214   213
   207   208   215   214
   208   209   216   215
   209   210   217   216
   218   219   232   231
   219   220   233   232
   220   221   234   233
   221   222   235   234
   222   223   236   235
   223   224   237   236
   224   225   238   237
   225   226   239   238
   226   227   240   239
   227   228   241   240
   228   229   242   241
   229   230   243   242
   231   232   245   244
   232   233   246   245
   233   234   247   246
   234   235   248   247
   235   236   249   248
   236   237   250   249
   237   238   251   250
   238   239   252   251
   239   240   253   252
   240   241   254   253
   241   242   255   254
   242   243   256   255


 ZONE T = "AERO - blade3 n=           0 " , STRANDID =            3 
  , SOLUTIONTIME =   0.000000000000000E+000  , F = FEPOINT, N =          256 
  , E =          204  , ET = QUADRILATERAL , C = BLUE , PASSIVEVARLIST=[4-7]
   160.000 -3005.000  5354.813
   150.000 -3005.000  5354.813
   140.000 -3005.000  5354.813
   130.000 -3005.000  5354.813
   120.000 -3005.000  5354.813
   110.000 -3005.000  5354.813
   100.000 -3005.000  5354.813
   160.000 -3015.000  5372.133
   150.000 -3015.000  5372.133
   140.000 -3015.000  5372.133
   130.000 -3015.000  5372.133
   120.000 -3015.000  5372.133
   110.000 -3015.000  5372.133
   100.000 -3015.000  5372.133
   160.000 -3025.000  5389.454
   150.000 -3025.000  5389.454
   140.000 -3025.000  5389.454
   130.000 -3025.000  5389.454
   120.000 -3025.000  5389.454
   110.000 -3025.000  5389.454
   100.000 -3025.000  5389.454
   160.000 -3035.000  5406.774
   150.000 -3035.000  5406.774
   140.000 -3035.000  5406.774
   130.000 -3035.000  5406.774
   120.000 -3035.000  5406.774
   110.000 -3035.000  5406.774
   100.000 -3035.000  5406.774
   160.000 -3045.000  5424.095
   150.000 -3045.000  5424.095
   140.000 -3045.000  5424.095
   130.000 -3045.000  5424.095
   120.000 -3045.000  5424.095
   110.000 -3045.000  5424.095
   100.000 -3045.000  5424.095
   160.000 -3055.000  5441.415
   150.000 -3055.000  5441.415
   140.000 -3055.000  5441.415
   130.000 -3055.000  5441.415
   120.000 -3055.000  5441.415
   110.000 -3055.000  5441.415
   100.000 -3055.000  5441.415
   160.000 -3065.000  5458.736
   150.000 -3065.000  5458.736
   140.000 -3065.000  5458.736
   130.000 -3065.000  5458.736
   120.000 -3065.000  5458.736
   110.000 -3065.000  5458.736
   100.000 -3065.000  5458.736
   160.000 -3075.000  5476.056
   150.000 -3075.000  5476.056
   140.000 -3075.000  5476.056
   130.000 -3075.000  5476.056
   120.000 -3075.000  5476.056
   110.000 -3075.000  5476.056
   100.000 -3075.000  5476.056
   160.000 -3085.000  5493.377
   150.000 -3085.000  5493.377
   140.000 -3085.000  5493.377
   130.000 -3085.000  5493.377
   120.000 -3085.000  5493.377
   110.000 -3085.000  5493.377
   100.000 -3085.000  5493.377
   160.000 -3095.000  5510.697
   150.000 -3095.000  5510.697
   140.000 -3095.000  5510.697
   130.000 -3095.000  5510.697
   120.000 -3095.000  5510.697
   110.000 -3095.000  5510.697
   100.000 -3095.000  5510.697
   160.000 -3105.000  5528.018
   150.000 -3105.000  5528.018
   140.000 -3105.000  5528.018
   130.000 -3105.000  5528.018
   120.000 -3105.000  5528.018
   110.000 -3105.000  5528.018
   100.000 -3105.000  5528.018
   160.000 -3115.000  5545.338
   150.000 -3115.000  5545.338
   140.000 -3115.000  5545.338
   130.000 -3115.000  5545.338
   120.000 -3115.000  5545.338
   110.000 -3115.000  5545.338
   100.000 -3115.000  5545.338
   160.000 -3125.000  5562.659
   150.000 -3125.000  5562.659
   140.000 -3125.000  5562.659
   130.000 -3125.000  5562.659
   120.000 -3125.000  5562.659
   110.000 -3125.000  5562.659
   100.000 -3125.000  5562.659
   160.000 -3135.000  5579.979
   150.000 -3135.000  5579.979
   140.000 -3135.000  5579.979
   130.000 -3135.000  5579.979
   120.000 -3135.000  5579.979
   110.000 -3135.000  5579.979
   100.000 -3135.000  5579.979
   160.000 -3145.000  5597.300
   150.000 -3145.000  5597.300
   140.000 -3145.000  5597.300
   130.000 -3145.000  5597.300