 TITLE = "Structural Mesh"
 VARIABLES = "X" "Y" "Z" "n(X)" "n(Y)" "n(Z)" "Cp"


 ZONE T = "STRC - PALA1 n=           0 " , STRANDID =           10 
  , SOLUTIONTIME =   0.000000000000000E+000  , F = FEPOINT, N =           20 
  , E =           10  , ET = LINESEG , C = BLACK , PASSIVEVARLIST=[4-7]
   130.000 -3000.000 -5046.200
   130.000 -3030.500 -5099.000
   130.000 -3030.500 -5099.000
   130.000 -3061.000 -5151.800
   130.000 -3061.000 -5151.800
   130.000 -3091.500 -5204.600
   130.000 -3091.500 -5204.600
   130.000 -3122.000 -5257.500
   130.000 -3122.000 -5257.500
   130.000 -3152.500 -5310.300
   130.000 -3152.500 -5310.300
   130.000 -3183.000 -5363.100
   130.000 -3183.000 -5363.100
   130.000 -3213.500 -5415.900
   130.000 -3213.500 -5415.900
   130.000 -3244.000 -5468.800
   130.000 -3244.000 -5468.800
   130.000 -3274.500 -5521.600
   130.000 -3274.500 -5521.600
   130.000 -3305.000 -5574.400


     1     2
     3     4
     5     6
     7     8
     9    10
    11    12
    13    14
    15    16
    17    18
    19    20


 ZONE T = "STRC - PALA2 n=           0 " , STRANDID =           11 
  , SOLUTIONTIME =   0.000000000000000E+000  , F = FEPOINT, N =           20 
  , E =           10  , ET = LINESEG , C = BLACK , PASSIVEVARLIST=[4-7]
   130.000  6000.000   150.000
   130.000  6061.000   150.000
   130.000  6061.000   150.000
   130.000  6122.000   150.000
   130.000  6122.000   150.000
   130.000  6183.000   150.000
   130.000  6183.000   150.000
   130.000  6244.000   150.000
   130.000  6244.000   150.000
   130.000  6305.000   150.000
   130.000  6305.000   150.000
   130.000  6366.000   150.000
   130.000  6366.000   150.000
   130.000  6427.000   150.000
   130.000  6427.000   150.000
   130.000  6488.000   150.000
   130.000  6488.000   150.000
   130.000  6549.000   150.000
   130.000  6549.000   150.000
   130.000  6610.000   150.000


     1     2
     3     4
     5     6
     7     8
     9    10
    11    12
    13    14
    15    16
    17    18
    19    20


 ZONE T = "STRC - PALA3 n=           0 " , STRANDID =           12 
  , SOLUTIONTIME =   0.000000000000000E+000  , F = FEPOINT, N =           20 
  , E =           10  , ET = LINESEG , C = BLACK , PASSIVEVARLIST=[4-7]
   130.000 -3000.000  5346.200
   130.000 -3030.500  5399.000
   130.000 -3030.500  5399.000
   130.000 -3061.000  5451.800
   130.000 -3061.000  5451.800
   130.000 -3091.500  5504.600
   130.000 -3091.500  5504.600
   130.000 -3122.000  5557.500
   130.000 -3122.000  5557.500
   130.000 -3152.500  5610.300
   130.000 -3152.500  5610.300
   130.000 -3183.000  5663.100
   130.000 -3183.000  5663.100
   130.000 -3213.500  5715.900
   130.000 -3213.500  5715.900
   130.000 -3244.000  5768.800
   130.000 -3244.000  5768.800
   130.000 -3274.500  5821.600
   130.000 -3274.500  5821.600
   130.000 -3305.000  5874.400


     1     2
     3     4
     5     6
     7     8
     9    10
    11    12
    13    14
    15    16
    17    18
    19    20


 ZONE T = "STRC - CUBO n=           0 " , STRANDID =           13 
  , SOLUTIONTIME =   0.000000000000000E+000  , F = FEPOINT, N =            2 
  , E =            1  , ET = LINESEG , C = BLACK , PASSIVEVARLIST=[4-7]
   130.000     0.000   150.000
   130.000     0.000   150.000


           1           2


 ZONE T = "STRC - TORRE n=           0 " , STRANDID =           14 
  , SOLUTIONTIME =   0.000000000000000E+000  , F = FEPOINT, N =            2 
  , E =            1  , ET = LINESEG , C = BLACK , PASSIVEVARLIST=[4-7]
     0.000     0.000     0.000
     0.000     0.000    80.000


     1     2


 ZONE T = "STRC - UNION n=           0 " , STRANDID =           15 
  , SOLUTIONTIME =   0.000000000000000E+000  , F = FEPOINT, N =            2 
  , E =            1  , ET = LINESEG , C = BLACK , PASSIVEVARLIST=[4-7]
     0.000     0.000    80.000
     0.000     0.000   150.000


     1     2


 ZONE T = "STRC - PALA1 n=           1 " , STRANDID =           10 
  , SOLUTIONTIME =   8.333359482300641E-002  , F = FEPOINT, N =           20 
  , E =           10  , ET = LINESEG , C = BLACK , CONNECTIVITYSHAREZONE = 
           1  , PASSIVEVARLIST=[4-7]
   130.000 -3000.000 -5046.200
   130.000 -3030.500 -5099.000
   130.000 -3030.500 -5099.000
   130.000 -3061.000 -5151.800
   130.000 -3061.000 -5151.800
   130.000 -3091.500 -5204.600
   130.000 -3091.500 -5204.600
   130.000 -3122.000 -5257.500
   130.000 -3122.000 -5257.500
   130.000 -3152.500 -5310.300
   130.000 -3152.500 -5310.300
   130.000 -3183.000 -5363.100
   130.000 -3183.000 -5363.100
   130.000 -3213.500 -5415.900
   130.000 -3213.500 -5415.900
   130.000 -3244.000 -5468.800
   130.000 -3244.000 -5468.800
   130.000 -3274.500 -5521.600
   130.000 -3274.500 -5521.600
   130.000 -3305.000 -5574.400


 ZONE T = "STRC - PALA2 n=           1 " , STRANDID =           11 
  , SOLUTIONTIME =   8.333359482300641E-002  , F = FEPOINT, N =           20 
  , E =           10  , ET = LINESEG , C = BLACK , CONNECTIVITYSHAREZONE = 
           2  , PASSIVEVARLIST=[4-7]
   130.000  6000.000   150.000
   130.000  6061.000   150.000
   130.000  6061.000   150.000
   130.000  6122.000   150.000
   130.000  6122.000   150.000
   130.000  6183.000   150.000
   130.000  6183.000   150.000
   130.000  6244.000   150.002
   130.000  6244.000   150.002
   130.000  6305.000   150.005
   130.000  6305.000   150.005
   130.000  6366.000   150.002
   130.000  6366.000   150.002
   130.000  6427.000   150.000
   130.000  6427.000   150.000
   130.000  6488.000   150.000
   130.000  6488.000   150.000
   130.000  6549.000   150.000
   130.000  6549.000   150.000
   130.000  6610.000   150.000


 ZONE T = "STRC - PALA3 n=           1 " , STRANDID =           12 
  , SOLUTIONTIME =   8.333359482300641E-002  , F = FEPOINT, N =           20 
  , E =           10  , ET = LINESEG , C = BLACK , CONNECTIVITYSHAREZONE = 
           3  , PASSIVEVARLIST=[4-7]
   130.000 -3000.000  5346.200
   130.000 -3030.500  5399.000
   130.000 -3030.500  5399.000
   130.000 -3061.000  5451.800
   130.000 -3061.000  5451.800
   130.000 -3091.500  5504.600
   130.000 -3091.500  5504.600
   130.000 -3122.000  5557.500
   130.000 -3122.000  5557.500
   130.000 -3152.500  5610.300
   130.000 -3152.500  5610.300
   130.000 -3183.000  5663.100
   130.000 -3183.000  5663.100
   130.000 -3213.500  5715.900
   130.000 -3213.500  5715.900
   130.000 -3244.000  5768.800
   130.000 -3244.000  5768.800
   130.000 -3274.500  5821.600
   130.000 -3274.500  5821.600
   130.000 -3305.000  5874.400


 ZONE T = "STRC - CUBO n=           1 " , STRANDID =           13 
  , SOLUTIONTIME =   8.333359482300641E-002  , F = FEPOINT, N =            2 
  , E =            1  , ET = LINESEG , C = BLACK , CONNECTIVITYSHAREZONE = 
           4  , PASSIVEVARLIST=[4-7]
   130.000     0.000   150.000
   130.000     0.000   150.000


 ZONE T = "STRC - TORRE n=           1 " , STRANDID =           14 
  , SOLUTIONTIME =   8.333359482300641E-002  , F = FEPOINT, N =            2 
  , E =            1  , ET = LINESEG , C = BLACK , CONNECTIVITYSHAREZONE = 
           5  , PASSIVEVARLIST=[4-7]
     0.000     0.000     0.000
     0.000    -0.000    80.000


 ZONE T = "STRC - UNION n=           1 " , STRANDID =           15 
  , SOLUTIONTIME =   8.333359482300641E-002  , F = FEPOINT, N =            2 
  , E =            1  , ET = LINESEG , C = BLACK , CONNECTIVITYSHAREZONE = 
           6  , PASSIVEVARLIST=[4-7]
     0.000    -0.000    80.000
     0.000     0.000   150.000


