 TITLE = "Panels' Forces"
 VARIABLES = "X" "Y" "Z" "n(X)" "n(Y)" "n(Z)" "Cp"


 ZONE T = "PanelFRCES - blade1 n=           0 " , STRANDID =           16 
  , SOLUTIONTIME =   0.000000000000000E+000  , ZONETYPE = ORDERED, I = 
         180  , C = PURPLE , PASSIVEVARLIST=[7] , DATAPACKING = POINT
   155.000 -3010.000 -5063.473  0.000E+00 -0.877E-03  0.506E-03
   145.000 -3010.000 -5063.473  0.000E+00 -0.642E-03  0.371E-03
   135.000 -3010.000 -5063.473  0.000E+00 -0.627E-03  0.362E-03
   125.000 -3010.000 -5063.473  0.000E+00 -0.570E-03  0.329E-03
   115.000 -3010.000 -5063.473  0.000E+00 -0.441E-03  0.255E-03
   105.000 -3010.000 -5063.473  0.000E+00 -0.127E-03  0.731E-04
   155.000 -3020.000 -5080.793  0.000E+00 -0.940E-03  0.543E-03
   145.000 -3020.000 -5080.793  0.000E+00 -0.694E-03  0.401E-03
   135.000 -3020.000 -5080.793  0.000E+00 -0.681E-03  0.393E-03
   125.000 -3020.000 -5080.793  0.000E+00 -0.617E-03  0.356E-03
   115.000 -3020.000 -5080.793  0.000E+00 -0.476E-03  0.275E-03
   105.000 -3020.000 -5080.793  0.000E+00 -0.138E-03  0.799E-04
   155.000 -3030.000 -5098.114  0.000E+00 -0.967E-03  0.558E-03
   145.000 -3030.000 -5098.114  0.000E+00 -0.716E-03  0.414E-03
   135.000 -3030.000 -5098.114  0.000E+00 -0.703E-03  0.406E-03
   125.000 -3030.000 -5098.114  0.000E+00 -0.636E-03  0.367E-03
   115.000 -3030.000 -5098.114  0.000E+00 -0.490E-03  0.283E-03
   105.000 -3030.000 -5098.114  0.000E+00 -0.142E-03  0.817E-04
   155.000 -3040.000 -5115.434  0.000E+00 -0.975E-03  0.563E-03
   145.000 -3040.000 -5115.434  0.000E+00 -0.724E-03  0.418E-03
   135.000 -3040.000 -5115.434  0.000E+00 -0.710E-03  0.410E-03
   125.000 -3040.000 -5115.434  0.000E+00 -0.643E-03  0.371E-03
   115.000 -3040.000 -5115.434  0.000E+00 -0.494E-03  0.285E-03
   105.000 -3040.000 -5115.434  0.000E+00 -0.142E-03  0.823E-04
   155.000 -3050.000 -5132.755  0.000E+00 -0.976E-03  0.563E-03
   145.000 -3050.000 -5132.755  0.000E+00 -0.724E-03  0.418E-03
   135.000 -3050.000 -5132.755  0.000E+00 -0.711E-03  0.410E-03
   125.000 -3050.000 -5132.755  0.000E+00 -0.643E-03  0.371E-03
   115.000 -3050.000 -5132.755  0.000E+00 -0.495E-03  0.286E-03
   105.000 -3050.000 -5132.755  0.000E+00 -0.142E-03  0.822E-04
   155.000 -3060.000 -5150.075  0.000E+00 -0.972E-03  0.561E-03
   145.000 -3060.000 -5150.075  0.000E+00 -0.722E-03  0.417E-03
   135.000 -3060.000 -5150.075  0.000E+00 -0.708E-03  0.409E-03
   125.000 -3060.000 -5150.075  0.000E+00 -0.641E-03  0.370E-03
   115.000 -3060.000 -5150.075  0.000E+00 -0.493E-03  0.284E-03
   105.000 -3060.000 -5150.075  0.000E+00 -0.142E-03  0.819E-04
   155.000 -3070.000 -5167.396  0.000E+00 -0.966E-03  0.558E-03
   145.000 -3070.000 -5167.396  0.000E+00 -0.717E-03  0.414E-03
   135.000 -3070.000 -5167.396  0.000E+00 -0.704E-03  0.406E-03
   125.000 -3070.000 -5167.396  0.000E+00 -0.637E-03  0.368E-03
   115.000 -3070.000 -5167.396  0.000E+00 -0.490E-03  0.283E-03
   105.000 -3070.000 -5167.396  0.000E+00 -0.141E-03  0.813E-04
   155.000 -3080.000 -5184.716  0.000E+00 -0.958E-03  0.553E-03
   145.000 -3080.000 -5184.716  0.000E+00 -0.712E-03  0.411E-03
   135.000 -3080.000 -5184.716  0.000E+00 -0.699E-03  0.403E-03
   125.000 -3080.000 -5184.716  0.000E+00 -0.632E-03  0.365E-03
   115.000 -3080.000 -5184.716  0.000E+00 -0.486E-03  0.281E-03
   105.000 -3080.000 -5184.716  0.000E+00 -0.140E-03  0.807E-04
   155.000 -3090.000 -5202.037  0.000E+00 -0.951E-03  0.549E-03
   145.000 -3090.000 -5202.037  0.000E+00 -0.706E-03  0.408E-03
   135.000 -3090.000 -5202.037  0.000E+00 -0.693E-03  0.400E-03
   125.000 -3090.000 -5202.037  0.000E+00 -0.627E-03  0.362E-03
   115.000 -3090.000 -5202.037  0.000E+00 -0.482E-03  0.278E-03
   105.000 -3090.000 -5202.037  0.000E+00 -0.139E-03  0.800E-04
   155.000 -3100.000 -5219.358  0.000E+00 -0.942E-03  0.544E-03
   145.000 -3100.000 -5219.358  0.000E+00 -0.700E-03  0.404E-03
   135.000 -3100.000 -5219.358  0.000E+00 -0.687E-03  0.397E-03
   125.000 -3100.000 -5219.358  0.000E+00 -0.622E-03  0.359E-03
   115.000 -3100.000 -5219.358  0.000E+00 -0.478E-03  0.276E-03
   105.000 -3100.000 -5219.358  0.000E+00 -0.137E-03  0.793E-04
   155.000 -3110.000 -5236.678  0.000E+00 -0.934E-03  0.539E-03
   145.000 -3110.000 -5236.678  0.000E+00 -0.694E-03  0.401E-03
   135.000 -3110.000 -5236.678  0.000E+00 -0.681E-03  0.393E-03
   125.000 -3110.000 -5236.678  0.000E+00 -0.616E-03  0.356E-03
   115.000 -3110.000 -5236.678  0.000E+00 -0.473E-03  0.273E-03
   105.000 -3110.000 -5236.678  0.000E+00 -0.136E-03  0.786E-04
   155.000 -3120.000 -5253.999  0.000E+00 -0.925E-03  0.534E-03
   145.000 -3120.000 -5253.999  0.000E+00 -0.687E-03  0.397E-03
   135.000 -3120.000 -5253.999  0.000E+00 -0.674E-03  0.389E-03
   125.000 -3120.000 -5253.999  0.000E+00 -0.610E-03  0.352E-03
   115.000 -3120.000 -5253.999  0.000E+00 -0.469E-03  0.271E-03
   105.000 -3120.000 -5253.999  0.000E+00 -0.135E-03  0.779E-04
   155.000 -3130.000 -5271.319  0.000E+00 -0.916E-03  0.529E-03
   145.000 -3130.000 -5271.319  0.000E+00 -0.681E-03  0.393E-03
   135.000 -3130.000 -5271.319  0.000E+00 -0.668E-03  0.386E-03
   125.000 -3130.000 -5271.319  0.000E+00 -0.605E-03  0.349E-03
   115.000 -3130.000 -5271.319  0.000E+00 -0.465E-03  0.268E-03
   105.000 -3130.000 -5271.319  0.000E+00 -0.134E-03  0.771E-04
   155.000 -3140.000 -5288.640  0.000E+00 -0.908E-03  0.524E-03
   145.000 -3140.000 -5288.640  0.000E+00 -0.674E-03  0.389E-03
   135.000 -3140.000 -5288.640  0.000E+00 -0.662E-03  0.382E-03
   125.000 -3140.000 -5288.640  0.000E+00 -0.599E-03  0.346E-03
   115.000 -3140.000 -5288.640  0.000E+00 -0.460E-03  0.266E-03
   105.000 -3140.000 -5288.640  0.000E+00 -0.132E-03  0.764E-04
   155.000 -3150.000 -5305.960  0.000E+00 -0.899E-03  0.519E-03
   145.000 -3150.000 -5305.960  0.000E+00 -0.668E-03  0.386E-03
   135.000 -3150.000 -5305.960  0.000E+00 -0.656E-03  0.378E-03
   125.000 -3150.000 -5305.960  0.000E+00 -0.593E-03  0.342E-03
   115.000 -3150.000 -5305.960  0.000E+00 -0.456E-03  0.263E-03
   105.000 -3150.000 -5305.960  0.000E+00 -0.131E-03  0.757E-04
   155.000 -3160.000 -5323.281  0.000E+00 -0.890E-03  0.514E-03
   145.000 -3160.000 -5323.281  0.000E+00 -0.662E-03  0.382E-03
   135.000 -3160.000 -5323.281  0.000E+00 -0.649E-03  0.375E-03
   125.000 -3160.000 -5323.281  0.000E+00 -0.587E-03  0.339E-03
   115.000 -3160.000 -5323.281  0.000E+00 -0.451E-03  0.261E-03
   105.000 -3160.000 -5323.281  0.000E+00 -0.130E-03  0.750E-04
   155.000 -3170.000 -5340.601  0.000E+00 -0.882E-03  0.509E-03
   145.000 -3170.000 -5340.601  0.000E+00 -0.655E-03  0.378E-03
   135.000 -3170.000 -5340.601  0.000E+00 -0.643E-03  0.371E-03
   125.000 -3170.000 -5340.601  0.000E+00 -0.582E-03  0.336E-03
   115.000 -3170.000 -5340.601  0.000E+00 -0.447E-03  0.258E-03
   105.000 -3170.000 -5340.601  0.000E+00 -0.129E-03  0.742E-04
   155.000 -3180.000 -5357.922  0.000E+00 -0.873E-03  0.504E-03
   145.000 -3180.000 -5357.922  0.000E+00 -0.649E-03  0.375E-03
   135.000 -3180.000 -5357.922  0.000E+00 -0.637E-03  0.368E-03
   125.000 -3180.000 -5357.922  0.000E+00 -0.576E-03  0.333E-03
   115.000 -3180.000 -5357.922  0.000E+00 -0.443E-03  0.256E-03
   105.000 -3180.000 -5357.922  0.000E+00 -0.127E-03  0.735E-04
   155.000 -3190.000 -5375.242  0.000E+00 -0.864E-03  0.499E-03
   145.000 -3190.000 -5375.242  0.000E+00 -0.642E-03  0.371E-03
   135.000 -3190.000 -5375.242  0.000E+00 -0.630E-03  0.364E-03
   125.000 -3190.000 -5375.242  0.000E+00 -0.570E-03  0.329E-03
   115.000 -3190.000 -5375.242  0.000E+00 -0.438E-03  0.253E-03
   105.000 -3190.000 -5375.242  0.000E+00 -0.126E-03  0.728E-04
   155.000 -3200.000 -5392.563  0.000E+00 -0.856E-03  0.494E-03
   145.000 -3200.000 -5392.563  0.000E+00 -0.636E-03  0.367E-03
   135.000 -3200.000 -5392.563  0.000E+00 -0.624E-03  0.360E-03
   125.000 -3200.000 -5392.563  0.000E+00 -0.565E-03  0.326E-03
   115.000 -3200.000 -5392.563  0.000E+00 -0.434E-03  0.250E-03
   105.000 -3200.000 -5392.563  0.000E+00 -0.125E-03  0.720E-04
   155.000 -3210.000 -5409.883  0.000E+00 -0.847E-03  0.489E-03
   145.000 -3210.000 -5409.883  0.000E+00 -0.629E-03  0.363E-03
   135.000 -3210.000 -5409.883  0.000E+00 -0.618E-03  0.357E-03
   125.000 -3210.000 -5409.883  0.000E+00 -0.559E-03  0.323E-03
   115.000 -3210.000 -5409.883  0.000E+00 -0.429E-03  0.248E-03
   105.000 -3210.000 -5409.883  0.000E+00 -0.124E-03  0.713E-04
   155.000 -3220.000 -5427.204  0.000E+00 -0.838E-03  0.484E-03
   145.000 -3220.000 -5427.204  0.000E+00 -0.623E-03  0.359E-03
   135.000 -3220.000 -5427.204  0.000E+00 -0.611E-03  0.353E-03
   125.000 -3220.000 -5427.204  0.000E+00 -0.553E-03  0.319E-03
   115.000 -3220.000 -5427.204  0.000E+00 -0.425E-03  0.245E-03
   105.000 -3220.000 -5427.204  0.000E+00 -0.122E-03  0.706E-04
   155.000 -3230.000 -5444.524  0.000E+00 -0.828E-03  0.478E-03
   145.000 -3230.000 -5444.524  0.000E+00 -0.616E-03  0.355E-03
   135.000 -3230.000 -5444.524  0.000E+00 -0.604E-03  0.349E-03
   125.000 -3230.000 -5444.524  0.000E+00 -0.547E-03  0.316E-03
   115.000 -3230.000 -5444.524  0.000E+00 -0.420E-03  0.242E-03
   105.000 -3230.000 -5444.524  0.000E+00 -0.121E-03  0.698E-04
   155.000 -3240.000 -5461.845  0.000E+00 -0.818E-03  0.472E-03
   145.000 -3240.000 -5461.845  0.000E+00 -0.608E-03  0.351E-03
   135.000 -3240.000 -5461.845  0.000E+00 -0.597E-03  0.344E-03
   125.000 -3240.000 -5461.845  0.000E+00 -0.540E-03  0.312E-03
   115.000 -3240.000 -5461.845  0.000E+00 -0.415E-03  0.240E-03
   105.000 -3240.000 -5461.845  0.000E+00 -0.119E-03  0.689E-04
   155.000 -3250.000 -5479.165  0.000E+00 -0.807E-03  0.466E-03
   145.000 -3250.000 -5479.165  0.000E+00 -0.599E-03  0.346E-03
   135.000 -3250.000 -5479.165  0.000E+00 -0.588E-03  0.340E-03
   125.000 -3250.000 -5479.165  0.000E+00 -0.532E-03  0.307E-03
   115.000 -3250.000 -5479.165  0.000E+00 -0.409E-03  0.236E-03
   105.000 -3250.000 -5479.165  0.000E+00 -0.118E-03  0.680E-04
   155.000 -3260.000 -5496.486  0.000E+00 -0.793E-03  0.458E-03
   145.000 -3260.000 -5496.486  0.000E+00 -0.589E-03  0.340E-03
   135.000 -3260.000 -5496.486  0.000E+00 -0.578E-03  0.333E-03
   125.000 -3260.000 -5496.486  0.000E+00 -0.523E-03  0.302E-03
   115.000 -3260.000 -5496.486  0.000E+00 -0.402E-03  0.232E-03
   105.000 -3260.000 -5496.486  0.000E+00 -0.116E-03  0.669E-04
   155.000 -3270.000 -5513.806  0.000E+00 -0.774E-03  0.447E-03
   145.000 -3270.000 -5513.806  0.000E+00 -0.574E-03  0.331E-03
   135.000 -3270.000 -5513.806  0.000E+00 -0.563E-03  0.325E-03
   125.000 -3270.000 -5513.806  0.000E+00 -0.510E-03  0.294E-03
   115.000 -3270.000 -5513.806  0.000E+00 -0.393E-03  0.227E-03
   105.000 -3270.000 -5513.806  0.000E+00 -0.113E-03  0.654E-04
   155.000 -3280.000 -5531.127  0.000E+00 -0.745E-03  0.430E-03
   145.000 -3280.000 -5531.127  0.000E+00 -0.551E-03  0.318E-03
   135.000 -3280.000 -5531.127  0.000E+00 -0.540E-03  0.312E-03
   125.000 -3280.000 -5531.127  0.000E+00 -0.489E-03  0.283E-03
   115.000 -3280.000 -5531.127  0.000E+00 -0.378E-03  0.218E-03
   105.000 -3280.000 -5531.127  0.000E+00 -0.110E-03  0.633E-04
   155.000 -3290.000 -5548.447  0.000E+00 -0.690E-03  0.398E-03
   145.000 -3290.000 -5548.447  0.000E+00 -0.506E-03  0.292E-03
   135.000 -3290.000 -5548.447  0.000E+00 -0.496E-03  0.286E-03
   125.000 -3290.000 -5548.447  0.000E+00 -0.451E-03  0.260E-03
   115.000 -3290.000 -5548.447  0.000E+00 -0.350E-03  0.202E-03
   105.000 -3290.000 -5548.447  0.000E+00 -0.103E-03  0.595E-04
   155.000 -3300.000 -5565.768  0.000E+00 -0.561E-03  0.324E-03
   145.000 -3300.000 -5565.768  0.000E+00 -0.400E-03  0.231E-03
   135.000 -3300.000 -5565.768  0.000E+00 -0.390E-03  0.225E-03
   125.000 -3300.000 -5565.768  0.000E+00 -0.358E-03  0.207E-03
   115.000 -3300.000 -5565.768  0.000E+00 -0.285E-03  0.165E-03
   105.000 -3300.000 -5565.768  0.000E+00 -0.888E-04  0.513E-04


 ZONE T = "PanelFRCES - blade2 n=           0 " , STRANDID =           17 
  , SOLUTIONTIME =   0.000000000000000E+000  , ZONETYPE = ORDERED, I = 
         180  , C = PURPLE , PASSIVEVARLIST=[7] , DATAPACKING = POINT
   155.000  6020.000   150.000  0.000E+00  0.000E+00  0.193E-02
   145.000  6020.000   150.000  0.000E+00  0.000E+00  0.141E-02
   135.000  6020.000   150.000  0.000E+00  0.000E+00  0.138E-02
   125.000  6020.000   150.000  0.000E+00  0.000E+00  0.126E-02
   115.000  6020.000   150.000  0.000E+00  0.000E+00  0.972E-03
   105.000  6020.000   150.000  0.000E+00  0.000E+00  0.279E-03
   155.000  6040.000   150.000  0.000E+00  0.000E+00  0.207E-02
   145.000  6040.000   150.000  0.000E+00  0.000E+00  0.153E-02
   135.000  6040.000   150.000  0.000E+00  0.000E+00  0.150E-02
   125.000  6040.000   150.000  0.000E+00  0.000E+00  0.136E-02
   115.000  6040.000   150.000  0.000E+00  0.000E+00  0.105E-02
   105.000  6040.000   150.000  0.000E+00  0.000E+00  0.305E-03
   155.000  6060.000   150.000  0.000E+00  0.000E+00  0.213E-02
   145.000  6060.000   150.000  0.000E+00  0.000E+00  0.158E-02
   135.000  6060.000   150.000  0.000E+00  0.000E+00  0.155E-02
   125.000  6060.000   150.000  0.000E+00  0.000E+00  0.140E-02
   115.000  6060.000   150.000  0.000E+00  0.000E+00  0.108E-02
   105.000  6060.000   150.000  0.000E+00  0.000E+00  0.312E-03
   155.000  6080.000   150.000  0.000E+00  0.305E-17  0.215E-02
   145.000  6080.000   150.000  0.000E+00  0.227E-17  0.159E-02
   135.000  6080.000   150.000  0.000E+00  0.222E-17  0.156E-02
   125.000  6080.000   150.000  0.000E+00  0.201E-17  0.142E-02
   115.000  6080.000   150.000  0.000E+00  0.155E-17  0.109E-02
   105.000  6080.000   150.000  0.000E+00  0.446E-18  0.314E-03
   155.000  6100.000   150.000  0.000E+00  0.000E+00  0.215E-02
   145.000  6100.000   150.000  0.000E+00  0.000E+00  0.160E-02
   135.000  6100.000   150.000  0.000E+00  0.000E+00  0.157E-02
   125.000  6100.000   150.000  0.000E+00  0.000E+00  0.142E-02
   115.000  6100.000   150.000  0.000E+00  0.000E+00  0.109E-02
   105.000  6100.000   150.000  0.000E+00  0.000E+00  0.314E-03
   155.000  6120.000   150.000  0.000E+00  0.304E-17  0.214E-02
   145.000  6120.000   150.000  0.000E+00  0.226E-17  0.159E-02
   135.000  6120.000   150.000  0.000E+00  0.222E-17  0.156E-02
   125.000  6120.000   150.000  0.000E+00  0.201E-17  0.141E-02
   115.000  6120.000   150.000  0.000E+00  0.154E-17  0.109E-02
   105.000  6120.000   150.000  0.000E+00  0.444E-18  0.313E-03
   155.000  6140.000   150.000  0.000E+00 -0.303E-17  0.213E-02
   145.000  6140.000   150.000  0.000E+00 -0.225E-17  0.158E-02
   135.000  6140.000   150.000  0.000E+00 -0.221E-17  0.155E-02
   125.000  6140.000   150.000  0.000E+00 -0.200E-17  0.140E-02
   115.000  6140.000   150.000  0.000E+00 -0.153E-17  0.108E-02
   105.000  6140.000   150.000  0.000E+00 -0.441E-18  0.311E-03
   155.000  6160.000   150.000  0.000E+00  0.000E+00  0.211E-02
   145.000  6160.000   150.000  0.000E+00  0.000E+00  0.157E-02
   135.000  6160.000   150.000  0.000E+00  0.000E+00  0.154E-02
   125.000  6160.000   150.000  0.000E+00  0.000E+00  0.139E-02
   115.000  6160.000   150.000  0.000E+00  0.000E+00  0.107E-02
   105.000  6160.000   150.000  0.000E+00  0.000E+00  0.308E-03
   155.000  6180.000   150.000  0.000E+00  0.000E+00  0.210E-02
   145.000  6180.000   150.000  0.000E+00  0.000E+00  0.156E-02
   135.000  6180.000   150.000  0.000E+00  0.000E+00  0.153E-02
   125.000  6180.000   150.000  0.000E+00  0.000E+00  0.138E-02
   115.000  6180.000   150.000  0.000E+00  0.000E+00  0.106E-02
   105.000  6180.000   150.000  0.000E+00  0.000E+00  0.306E-03
   155.000  6200.000   150.000  0.000E+00  0.000E+00  0.208E-02
   145.000  6200.000   150.000  0.000E+00  0.000E+00  0.154E-02
   135.000  6200.000   150.000  0.000E+00  0.000E+00  0.152E-02
   125.000  6200.000   150.000  0.000E+00  0.000E+00  0.137E-02
   115.000  6200.000   150.000  0.000E+00  0.000E+00  0.105E-02
   105.000  6200.000   150.000  0.000E+00  0.000E+00  0.303E-03
   155.000  6220.000   150.000  0.000E+00  0.000E+00  0.206E-02
   145.000  6220.000   150.000  0.000E+00  0.000E+00  0.153E-02
   135.000  6220.000   150.000  0.000E+00  0.000E+00  0.150E-02
   125.000  6220.000   150.000  0.000E+00  0.000E+00  0.136E-02
   115.000  6220.000   150.000  0.000E+00  0.000E+00  0.104E-02
   105.000  6220.000   150.000  0.000E+00  0.000E+00  0.300E-03
   155.000  6240.000   150.000  0.000E+00  0.290E-17  0.204E-02
   145.000  6240.000   150.000  0.000E+00  0.216E-17  0.152E-02
   135.000  6240.000   150.000  0.000E+00  0.212E-17  0.149E-02
   125.000  6240.000   150.000  0.000E+00  0.191E-17  0.135E-02
   115.000  6240.000   150.000  0.000E+00  0.147E-17  0.104E-02
   105.000  6240.000   150.000  0.000E+00  0.423E-18  0.298E-03
   155.000  6260.000   150.000  0.000E+00  0.288E-17  0.202E-02
   145.000  6260.000   150.000  0.000E+00  0.214E-17  0.150E-02
   135.000  6260.000   150.000  0.000E+00  0.210E-17  0.148E-02
   125.000  6260.000   150.000  0.000E+00  0.190E-17  0.133E-02
   115.000  6260.000   150.000  0.000E+00  0.146E-17  0.103E-02
   105.000  6260.000   150.000  0.000E+00  0.419E-18  0.295E-03
   155.000  6280.000   150.000  0.000E+00 -0.285E-17  0.200E-02
   145.000  6280.000   150.000  0.000E+00 -0.212E-17  0.149E-02
   135.000  6280.000   150.000  0.000E+00 -0.208E-17  0.146E-02
   125.000  6280.000   150.000  0.000E+00 -0.188E-17  0.132E-02
   115.000  6280.000   150.000  0.000E+00 -0.144E-17  0.102E-02
   105.000  6280.000   150.000  0.000E+00 -0.415E-18  0.292E-03
   155.000  6300.000   150.000  0.000E+00  0.000E+00  0.199E-02
   145.000  6300.000   150.000  0.000E+00  0.000E+00  0.148E-02
   135.000  6300.000   150.000  0.000E+00  0.000E+00  0.145E-02
   125.000  6300.000   150.000  0.000E+00  0.000E+00  0.131E-02
   115.000  6300.000   150.000  0.000E+00  0.000E+00  0.101E-02
   105.000  6300.000   150.000  0.000E+00  0.000E+00  0.290E-03
   155.000  6320.000   150.000  0.000E+00  0.000E+00  0.197E-02
   145.000  6320.000   150.000  0.000E+00  0.000E+00  0.146E-02
   135.000  6320.000   150.000  0.000E+00  0.000E+00  0.143E-02
   125.000  6320.000   150.000  0.000E+00  0.000E+00  0.130E-02
   115.000  6320.000   150.000  0.000E+00  0.000E+00  0.997E-03
   105.000  6320.000   150.000  0.000E+00  0.000E+00  0.287E-03
   155.000  6340.000   150.000  0.000E+00  0.000E+00  0.195E-02
   145.000  6340.000   150.000  0.000E+00  0.000E+00  0.145E-02
   135.000  6340.000   150.000  0.000E+00  0.000E+00  0.142E-02
   125.000  6340.000   150.000  0.000E+00  0.000E+00  0.129E-02
   115.000  6340.000   150.000  0.000E+00  0.000E+00  0.988E-03
   105.000  6340.000   150.000  0.000E+00  0.000E+00  0.284E-03
   155.000  6360.000   150.000  0.000E+00  0.000E+00  0.193E-02
   145.000  6360.000   150.000  0.000E+00  0.000E+00  0.143E-02
   135.000  6360.000   150.000  0.000E+00  0.000E+00  0.141E-02
   125.000  6360.000   150.000  0.000E+00  0.000E+00  0.127E-02
   115.000  6360.000   150.000  0.000E+00  0.000E+00  0.978E-03
   105.000  6360.000   150.000  0.000E+00  0.000E+00  0.281E-03
   155.000  6380.000   150.000  0.000E+00  0.272E-17  0.191E-02
   145.000  6380.000   150.000  0.000E+00  0.202E-17  0.142E-02
   135.000  6380.000   150.000  0.000E+00  0.198E-17  0.139E-02
   125.000  6380.000   150.000  0.000E+00  0.179E-17  0.126E-02
   115.000  6380.000   150.000  0.000E+00  0.138E-17  0.969E-03
   105.000  6380.000   150.000  0.000E+00  0.396E-18  0.279E-03
   155.000  6400.000   150.000  0.000E+00  0.000E+00  0.189E-02
   145.000  6400.000   150.000  0.000E+00  0.000E+00  0.141E-02
   135.000  6400.000   150.000  0.000E+00  0.000E+00  0.138E-02
   125.000  6400.000   150.000  0.000E+00  0.000E+00  0.125E-02
   115.000  6400.000   150.000  0.000E+00  0.000E+00  0.959E-03
   105.000  6400.000   150.000  0.000E+00  0.000E+00  0.276E-03
   155.000  6420.000   150.000  0.000E+00  0.000E+00  0.187E-02
   145.000  6420.000   150.000  0.000E+00  0.000E+00  0.139E-02
   135.000  6420.000   150.000  0.000E+00  0.000E+00  0.137E-02
   125.000  6420.000   150.000  0.000E+00  0.000E+00  0.124E-02
   115.000  6420.000   150.000  0.000E+00  0.000E+00  0.949E-03
   105.000  6420.000   150.000  0.000E+00  0.000E+00  0.273E-03
   155.000  6440.000   150.000  0.000E+00  0.000E+00  0.185E-02
   145.000  6440.000   150.000  0.000E+00  0.000E+00  0.138E-02
   135.000  6440.000   150.000  0.000E+00  0.000E+00  0.135E-02
   125.000  6440.000   150.000  0.000E+00  0.000E+00  0.122E-02
   115.000  6440.000   150.000  0.000E+00  0.000E+00  0.940E-03
   105.000  6440.000   150.000  0.000E+00  0.000E+00  0.270E-03
   155.000  6460.000   150.000  0.000E+00  0.000E+00  0.183E-02
   145.000  6460.000   150.000  0.000E+00  0.000E+00  0.136E-02
   135.000  6460.000   150.000  0.000E+00  0.000E+00  0.134E-02
   125.000  6460.000   150.000  0.000E+00  0.000E+00  0.121E-02
   115.000  6460.000   150.000  0.000E+00  0.000E+00  0.929E-03
   105.000  6460.000   150.000  0.000E+00  0.000E+00  0.267E-03
   155.000  6480.000   150.000  0.000E+00  0.000E+00  0.181E-02
   145.000  6480.000   150.000  0.000E+00  0.000E+00  0.135E-02
   135.000  6480.000   150.000  0.000E+00  0.000E+00  0.132E-02
   125.000  6480.000   150.000  0.000E+00  0.000E+00  0.119E-02
   115.000  6480.000   150.000  0.000E+00  0.000E+00  0.918E-03
   105.000  6480.000   150.000  0.000E+00  0.000E+00  0.264E-03
   155.000  6500.000   150.000  0.000E+00  0.000E+00  0.179E-02
   145.000  6500.000   150.000  0.000E+00  0.000E+00  0.133E-02
   135.000  6500.000   150.000  0.000E+00  0.000E+00  0.130E-02
   125.000  6500.000   150.000  0.000E+00  0.000E+00  0.118E-02
   115.000  6500.000   150.000  0.000E+00  0.000E+00  0.905E-03
   105.000  6500.000   150.000  0.000E+00  0.000E+00  0.261E-03
   155.000  6520.000   150.000  0.000E+00  0.000E+00  0.176E-02
   145.000  6520.000   150.000  0.000E+00  0.000E+00  0.130E-02
   135.000  6520.000   150.000  0.000E+00  0.000E+00  0.128E-02
   125.000  6520.000   150.000  0.000E+00  0.000E+00  0.116E-02
   115.000  6520.000   150.000  0.000E+00  0.000E+00  0.890E-03
   105.000  6520.000   150.000  0.000E+00  0.000E+00  0.256E-03
   155.000  6540.000   150.000  0.000E+00  0.244E-17  0.171E-02
   145.000  6540.000   150.000  0.000E+00  0.181E-17  0.127E-02
   135.000  6540.000   150.000  0.000E+00  0.177E-17  0.125E-02
   125.000  6540.000   150.000  0.000E+00  0.160E-17  0.113E-02
   115.000  6540.000   150.000  0.000E+00  0.123E-17  0.869E-03
   105.000  6540.000   150.000  0.000E+00  0.357E-18  0.251E-03
   155.000  6560.000   150.000  0.000E+00  0.000E+00  0.165E-02
   145.000  6560.000   150.000  0.000E+00  0.000E+00  0.122E-02
   135.000  6560.000   150.000  0.000E+00  0.000E+00  0.120E-02
   125.000  6560.000   150.000  0.000E+00  0.000E+00  0.108E-02
   115.000  6560.000   150.000  0.000E+00  0.000E+00  0.836E-03
   105.000  6560.000   150.000  0.000E+00  0.000E+00  0.243E-03
   155.000  6580.000   150.000  0.000E+00  0.000E+00  0.153E-02
   145.000  6580.000   150.000  0.000E+00  0.000E+00  0.112E-02
   135.000  6580.000   150.000  0.000E+00  0.000E+00  0.110E-02
   125.000  6580.000   150.000  0.000E+00  0.000E+00  0.998E-03
   115.000  6580.000   150.000  0.000E+00  0.000E+00  0.776E-03
   105.000  6580.000   150.000  0.000E+00  0.000E+00  0.228E-03
   155.000  6600.000   150.000  0.000E+00  0.000E+00  0.124E-02
   145.000  6600.000   150.000  0.000E+00  0.000E+00  0.885E-03
   135.000  6600.000   150.000  0.000E+00  0.000E+00  0.864E-03
   125.000  6600.000   150.000  0.000E+00  0.000E+00  0.794E-03
   115.000  6600.000   150.000  0.000E+00  0.000E+00  0.632E-03
   105.000  6600.000   150.000  0.000E+00  0.000E+00  0.197E-03


 ZONE T = "PanelFRCES - blade3 n=           0 " , STRANDID =           18 
  , SOLUTIONTIME =   0.000000000000000E+000  , ZONETYPE = ORDERED, I = 
         180  , C = PURPLE , PASSIVEVARLIST=[7] , DATAPACKING = POINT
   155.000 -3010.000  5363.473  0.000E+00  0.802E-03  0.463E-03
   145.000 -3010.000  5363.473  0.000E+00  0.587E-03  0.339E-03
   135.000 -3010.000  5363.473  0.000E+00  0.574E-03  0.331E-03
   125.000 -3010.000  5363.473  0.000E+00  0.521E-03  0.301E-03
   115.000 -3010.000  5363.473  0.000E+00  0.403E-03  0.233E-03
   105.000 -3010.000  5363.473  0.000E+00  0.116E-03  0.669E-04
   155.000 -3020.000  5380.793  0.000E+00  0.860E-03  0.496E-03
   145.000 -3020.000  5380.793  0.000E+00  0.635E-03  0.367E-03
   135.000 -3020.000  5380.793  0.000E+00  0.623E-03  0.359E-03
   125.000 -3020.000  5380.793  0.000E+00  0.564E-03  0.326E-03
   115.000 -3020.000  5380.793  0.000E+00  0.436E-03  0.252E-03
   105.000 -3020.000  5380.793  0.000E+00  0.127E-03  0.730E-04
   155.000 -3030.000  5398.114  0.000E+00  0.884E-03  0.511E-03
   145.000 -3030.000  5398.114  0.000E+00  0.655E-03  0.378E-03
   135.000 -3030.000  5398.114  0.000E+00  0.643E-03  0.371E-03
   125.000 -3030.000  5398.114  0.000E+00  0.582E-03  0.336E-03
   115.000 -3030.000  5398.114  0.000E+00  0.448E-03  0.259E-03
   105.000 -3030.000  5398.114  0.000E+00  0.129E-03  0.748E-04
   155.000 -3040.000  5415.434  0.000E+00  0.893E-03  0.515E-03
   145.000 -3040.000  5415.434  0.000E+00  0.662E-03  0.382E-03
   135.000 -3040.000  5415.434  0.000E+00  0.650E-03  0.375E-03
   125.000 -3040.000  5415.434  0.000E+00  0.588E-03  0.340E-03
   115.000 -3040.000  5415.434  0.000E+00  0.452E-03  0.261E-03
   105.000 -3040.000  5415.434  0.000E+00  0.130E-03  0.753E-04
   155.000 -3050.000  5432.755  0.000E+00  0.893E-03  0.516E-03
   145.000 -3050.000  5432.755  0.000E+00  0.663E-03  0.383E-03
   135.000 -3050.000  5432.755  0.000E+00  0.651E-03  0.376E-03
   125.000 -3050.000  5432.755  0.000E+00  0.589E-03  0.340E-03
   115.000 -3050.000  5432.755  0.000E+00  0.453E-03  0.261E-03
   105.000 -3050.000  5432.755  0.000E+00  0.130E-03  0.753E-04
   155.000 -3060.000  5450.075  0.000E+00  0.890E-03  0.514E-03
   145.000 -3060.000  5450.075  0.000E+00  0.661E-03  0.382E-03
   135.000 -3060.000  5450.075  0.000E+00  0.649E-03  0.375E-03
   125.000 -3060.000  5450.075  0.000E+00  0.587E-03  0.339E-03
   115.000 -3060.000  5450.075  0.000E+00  0.451E-03  0.261E-03
   105.000 -3060.000  5450.075  0.000E+00  0.130E-03  0.750E-04
   155.000 -3070.000  5467.396  0.000E+00  0.885E-03  0.511E-03
   145.000 -3070.000  5467.396  0.000E+00  0.657E-03  0.380E-03
   135.000 -3070.000  5467.396  0.000E+00  0.645E-03  0.372E-03
   125.000 -3070.000  5467.396  0.000E+00  0.584E-03  0.337E-03
   115.000 -3070.000  5467.396  0.000E+00  0.449E-03  0.259E-03
   105.000 -3070.000  5467.396  0.000E+00  0.129E-03  0.745E-04
   155.000 -3080.000  5484.716  0.000E+00  0.879E-03  0.507E-03
   145.000 -3080.000  5484.716  0.000E+00  0.653E-03  0.377E-03
   135.000 -3080.000  5484.716  0.000E+00  0.641E-03  0.370E-03
   125.000 -3080.000  5484.716  0.000E+00  0.580E-03  0.335E-03
   115.000 -3080.000  5484.716  0.000E+00  0.445E-03  0.257E-03
   105.000 -3080.000  5484.716  0.000E+00  0.128E-03  0.740E-04
   155.000 -3090.000  5502.037  0.000E+00  0.872E-03  0.503E-03
   145.000 -3090.000  5502.037  0.000E+00  0.648E-03  0.374E-03
   135.000 -3090.000  5502.037  0.000E+00  0.636E-03  0.367E-03
   125.000 -3090.000  5502.037  0.000E+00  0.575E-03  0.332E-03
   115.000 -3090.000  5502.037  0.000E+00  0.442E-03  0.255E-03
   105.000 -3090.000  5502.037  0.000E+00  0.127E-03  0.734E-04
   155.000 -3100.000  5519.358  0.000E+00  0.865E-03  0.499E-03
   145.000 -3100.000  5519.358  0.000E+00  0.642E-03  0.371E-03
   135.000 -3100.000  5519.358  0.000E+00  0.630E-03  0.364E-03
   125.000 -3100.000  5519.358  0.000E+00  0.570E-03  0.329E-03
   115.000 -3100.000  5519.358  0.000E+00  0.438E-03  0.253E-03
   105.000 -3100.000  5519.358  0.000E+00  0.126E-03  0.728E-04
   155.000 -3110.000  5536.678  0.000E+00  0.857E-03  0.495E-03
   145.000 -3110.000  5536.678  0.000E+00  0.637E-03  0.368E-03
   135.000 -3110.000  5536.678  0.000E+00  0.625E-03  0.361E-03
   125.000 -3110.000  5536.678  0.000E+00  0.565E-03  0.326E-03
   115.000 -3110.000  5536.678  0.000E+00  0.434E-03  0.251E-03
   105.000 -3110.000  5536.678  0.000E+00  0.125E-03  0.722E-04
   155.000 -3120.000  5553.999  0.000E+00  0.849E-03  0.490E-03
   145.000 -3120.000  5553.999  0.000E+00  0.631E-03  0.364E-03
   135.000 -3120.000  5553.999  0.000E+00  0.619E-03  0.358E-03
   125.000 -3120.000  5553.999  0.000E+00  0.560E-03  0.324E-03
   115.000 -3120.000  5553.999  0.000E+00  0.431E-03  0.249E-03
   105.000 -3120.000  5553.999  0.000E+00  0.124E-03  0.715E-04
   155.000 -3130.000  5571.319  0.000E+00  0.842E-03  0.486E-03
   145.000 -3130.000  5571.319  0.000E+00  0.625E-03  0.361E-03
   135.000 -3130.000  5571.319  0.000E+00  0.614E-03  0.354E-03
   125.000 -3130.000  5571.319  0.000E+00  0.555E-03  0.321E-03
   115.000 -3130.000  5571.319  0.000E+00  0.427E-03  0.246E-03
   105.000 -3130.000  5571.319  0.000E+00  0.123E-03  0.709E-04
   155.000 -3140.000  5588.640  0.000E+00  0.834E-03  0.482E-03
   145.000 -3140.000  5588.640  0.000E+00  0.620E-03  0.358E-03
   135.000 -3140.000  5588.640  0.000E+00  0.608E-03  0.351E-03
   125.000 -3140.000  5588.640  0.000E+00  0.550E-03  0.318E-03
   115.000 -3140.000  5588.640  0.000E+00  0.423E-03  0.244E-03
   105.000 -3140.000  5588.640  0.000E+00  0.122E-03  0.702E-04
   155.000 -3150.000  5605.960  0.000E+00  0.826E-03  0.477E-03
   145.000 -3150.000  5605.960  0.000E+00  0.614E-03  0.355E-03
   135.000 -3150.000  5605.960  0.000E+00  0.603E-03  0.348E-03
   125.000 -3150.000  5605.960  0.000E+00  0.545E-03  0.315E-03
   115.000 -3150.000  5605.960  0.000E+00  0.419E-03  0.242E-03
   105.000 -3150.000  5605.960  0.000E+00  0.121E-03  0.696E-04
   155.000 -3160.000  5623.281  0.000E+00  0.819E-03  0.473E-03
   145.000 -3160.000  5623.281  0.000E+00  0.608E-03  0.351E-03
   135.000 -3160.000  5623.281  0.000E+00  0.597E-03  0.345E-03
   125.000 -3160.000  5623.281  0.000E+00  0.540E-03  0.312E-03
   115.000 -3160.000  5623.281  0.000E+00  0.415E-03  0.240E-03
   105.000 -3160.000  5623.281  0.000E+00  0.119E-03  0.689E-04
   155.000 -3170.000  5640.601  0.000E+00  0.811E-03  0.468E-03