 TITLE = "Structural Mesh"
 VARIABLES = "X" "Y" "Z" "n(X)" "n(Y)" "n(Z)" "Cp"


 ZONE T = "STRC - PALA1 n=           0 " , STRANDID =           10 
  , SOLUTIONTIME =   0.000000000000000E+000  , F = FEPOINT, N =           70 
  , E =           35  , ET = LINESEG , C = BLACK , PASSIVEVARLIST=[4-7]
     8.492    -5.191   139.530
     8.766    -7.578   137.980
     8.766    -7.578   137.980
     9.047    -9.943   136.390
     9.047    -9.943   136.390
     9.340   -12.272   134.730
     9.340   -12.272   134.730
     9.629   -14.615   133.100
     9.629   -14.615   133.100
     9.895   -17.047   131.620
     9.895   -17.047   131.620
    10.161   -19.522   130.220
    10.161   -19.522   130.220
    10.390   -22.051   128.910
    10.390   -22.051   128.910
    10.637   -24.502   127.460
    10.637   -24.502   127.460
    10.900   -27.024   126.140
    10.900   -27.024   126.140
    11.102   -29.658   125.000
    11.102   -29.658   125.000
    11.332   -32.154   123.630
    11.332   -32.154   123.630
    11.574   -34.581   122.140
    11.574   -34.581   122.140
    11.805   -37.030   120.690
    11.805   -37.030   120.690
    12.015   -39.536   119.330
    12.015   -39.536   119.330
    12.215   -42.065   118.010
    12.215   -42.065   118.010
    12.416   -44.581   116.670
    12.416   -44.581   116.670
    12.626   -47.076   115.290
    12.626   -47.076   115.290
    12.851   -49.560   113.890
    12.851   -49.560   113.890
    13.096   -52.041   112.500
    13.096   -52.041   112.500
    13.352   -54.523   111.110
    13.352   -54.523   111.110
    13.607   -57.005   109.710
    13.607   -57.005   109.710
    13.849   -59.485   108.320
    13.849   -59.485   108.320
    14.080   -61.957   106.900
    14.080   -61.957   106.900
    14.307   -64.418   105.470
    14.307   -64.418   105.470
    14.560   -66.882   104.040
    14.560   -66.882   104.040
    14.819   -69.342   102.620
    14.819   -69.342   102.620
    15.070   -71.797   101.170
    15.070   -71.797   101.170
    15.322   -74.258    99.744
    15.322   -74.258    99.744
    15.575   -76.720    98.317
    15.575   -76.720    98.317
    15.826   -79.179    96.883
    15.826   -79.179    96.883
    16.077   -81.634    95.444
    16.077   -81.634    95.444
    16.330   -84.095    94.014
    16.330   -84.095    94.014
    16.596   -86.594    92.653
    16.596   -86.594    92.653
    16.882   -89.145    91.388
    16.882   -89.145    91.388
    17.188   -91.706    90.142


     1     2
     3     4
     5     6
     7     8
     9    10
    11    12
    13    14
    15    16
    17    18
    19    20
    21    22
    23    24
    25    26
    27    28
    29    30
    31    32
    33    34
    35    36
    37    38
    39    40
    41    42
    43    44
    45    46
    47    48
    49    50
    51    52
    53    54
    55    56
    57    58
    59    60
    61    62
    63    64
    65    66
    67    68
    69    70


 ZONE T = "STRC - PALA2 n=           0 " , STRANDID =           11 
  , SOLUTIONTIME =   0.000000000000000E+000  , F = FEPOINT, N =           70 
  , E =           35  , ET = LINESEG , C = BLACK , PASSIVEVARLIST=[4-7]
     8.492     5.191   139.530
     8.741     7.747   138.270
     8.741     7.747   138.270
     8.990    10.325   137.050
     8.990    10.325   137.050
     9.239    12.939   135.880
     9.239    12.939   135.880
     9.489    15.538   134.690
     9.489    15.538   134.690
     9.744    18.049   133.350
     9.744    18.049   133.350
    10.011    20.516   131.940
    10.011    20.516   131.940
    10.257    22.932   130.430
    10.257    22.932   130.430
    10.498    25.426   129.050
    10.498    25.426   129.050
    10.776    27.846   127.560
    10.776    27.846   127.560
    11.027    30.158   125.870
    11.027    30.158   125.870
    11.264    32.606   124.410
    11.264    32.606   124.410
    11.492    35.125   123.080
    11.492    35.125   123.080
    11.715    37.621   121.710
    11.715    37.621   121.710
    11.936    40.062   120.240
    11.936    40.062   120.240
    12.152    42.480   118.720
    12.152    42.480   118.720
    12.366    44.911   117.240
    12.366    44.911   117.240
    12.583    47.363   115.780
    12.583    47.363   115.780
    12.811    49.825   114.350
    12.811    49.825   114.350
    13.059    52.288   112.920
    13.059    52.288   112.920
    13.318    54.749   111.500
    13.318    54.749   111.500
    13.576    57.210   110.070
    13.576    57.210   110.070
    13.821    59.675   108.640
    13.821    59.675   108.640
    14.051    62.149   107.230
    14.051    62.149   107.230
    14.274    64.633   105.840
    14.274    64.633   105.840
    14.525    67.113   104.440
    14.525    67.113   104.440
    14.781    69.596   103.050
    14.781    69.596   103.050
    15.027    72.085   101.670
    15.027    72.085   101.670
    15.275    74.568   100.280
    15.275    74.568   100.280
    15.525    77.050    98.886
    15.525    77.050    98.886
    15.772    79.535    97.498
    15.772    79.535    97.498
    16.018    82.023    96.115
    16.018    82.023    96.115
    16.268    84.506    94.723
    16.268    84.506    94.723
    16.542    86.950    93.268
    16.542    86.950    93.268
    16.852    89.339    91.722
    16.852    89.339    91.722
    17.186    91.717    90.162


     1     2
     3     4
     5     6
     7     8
     9    10
    11    12
    13    14
    15    16
    17    18
    19    20
    21    22
    23    24
    25    26
    27    28
    29    30
    31    32
    33    34
    35    36
    37    38
    39    40
    41    42
    43    44
    45    46
    47    48
    49    50
    51    52
    53    54
    55    56
    57    58
    59    60
    61    62
    63    64
    65    66
    67    68
    69    70


 ZONE T = "STRC - PALA3 n=           0 " , STRANDID =           12 
  , SOLUTIONTIME =   0.000000000000000E+000  , F = FEPOINT, N =           70 
  , E =           35  , ET = LINESEG , C = BLACK , PASSIVEVARLIST=[4-7]
     7.708    -0.000   148.490
     7.596    -0.169   151.350
     7.596    -0.169   151.350
     7.489    -0.382   154.200
     7.489    -0.382   154.200
     7.386    -0.667   157.060
     7.386    -0.667   157.060
     7.283    -0.923   159.910
     7.283    -0.923   159.910
     7.170    -1.002   162.770
     7.170    -1.002   162.770
     7.064    -0.994   165.620
     7.064    -0.994   165.620
     6.928    -0.880   168.480
     6.928    -0.880   168.480
     6.799    -0.924   171.330
     6.799    -0.924   171.330
     6.697    -0.822   174.190
     6.697    -0.822   174.190
     6.550    -0.500   177.040
     6.550    -0.500   177.040
     6.410    -0.452   179.890
     6.410    -0.452   179.890
     6.272    -0.545   182.750
     6.272    -0.545   182.750
     6.125    -0.591   185.600
     6.125    -0.591   185.600
     5.967    -0.525   188.450
     5.967    -0.525   188.450
     5.802    -0.415   191.310
     5.802    -0.415   191.310
     5.636    -0.330   194.160
     5.636    -0.330   194.160
     5.476    -0.287   197.010
     5.476    -0.287   197.010
     5.330    -0.266   199.870
     5.330    -0.266   199.870
     5.203    -0.246   202.720
     5.203    -0.246   202.720
     5.088    -0.225   205.570
     5.088    -0.225   205.570
     4.971    -0.205   208.430
     4.971    -0.205   208.430
     4.841    -0.191   211.280
     4.841    -0.191   211.280
     4.698    -0.192   214.140
     4.698    -0.192   214.140
     4.550    -0.216   216.990
     4.550    -0.216   216.990
     4.429    -0.230   219.840
     4.429    -0.230   219.840
     4.313    -0.253   222.700
     4.313    -0.253   222.700
     4.189    -0.287   225.550
     4.189    -0.287   225.550
     4.066    -0.311   228.410
     4.066    -0.311   228.410
     3.943    -0.330   231.260
     3.943    -0.330   231.260
     3.820    -0.356   234.120
     3.820    -0.356   234.120
     3.695    -0.389   236.970
     3.695    -0.389   236.970
     3.573    -0.411   239.830
     3.573    -0.411   239.830
     3.470    -0.356   242.680
     3.470    -0.356   242.680
     3.395    -0.194   245.540
     3.395    -0.194   245.540
     3.342    -0.012   248.400


     1     2
     3     4
     5     6
     7     8
     9    10
    11    12
    13    14
    15    16
    17    18
    19    20
    21    22
    23    24
    25    26
    27    28
    29    30
    31    32
    33    34
    35    36
    37    38
    39    40
    41    42
    43    44
    45    46
    47    48
    49    50
    51    52
    53    54
    55    56
    57    58
    59    60
    61    62
    63    64
    65    66
    67    68
    69    70


 ZONE T = "STRC - CUBO n=           0 " , STRANDID =           13 
  , SOLUTIONTIME =   0.000000000000000E+000  , F = FEPOINT, N =            2 
  , E =            1  , ET = LINESEG , C = BLACK , PASSIVEVARLIST=[4-7]
     7.970     0.000   142.500
     7.970     0.000   142.500


           1           2


 ZONE T = "STRC - TORRE n=           0 " , STRANDID =           14 
  , SOLUTIONTIME =   0.000000000000000E+000  , F = FEPOINT, N =           38 
  , E =           19  , ET = LINESEG , C = BLACK , PASSIVEVARLIST=[4-7]
     0.000     0.000     0.000
     0.000     0.000     7.105
     0.000     0.000     7.105
     0.000     0.000    14.211
     0.000     0.000    14.211
     0.000     0.000    21.316
     0.000     0.000    21.316
     0.000     0.000    28.421
     0.000     0.000    28.421
     0.000     0.000    35.526
     0.000     0.000    35.526
     0.000     0.000    42.632
     0.000     0.000    42.632
     0.000     0.000    49.737
     0.000     0.000    49.737
     0.000     0.000    56.842
     0.000     0.000    56.842
     0.000     0.000    63.947
     0.000     0.000    63.947
     0.000     0.000    71.053
     0.000     0.000    71.053
     0.000     0.000    78.158
     0.000     0.000    78.158
     0.000     0.000    85.263
     0.000     0.000    85.263
     0.000     0.000    92.368
     0.000     0.000    92.368
     0.000     0.000    99.474
     0.000     0.000    99.474
     0.000     0.000   106.580
     0.000     0.000   106.580
     0.000     0.000   113.680
     0.000     0.000   113.680
     0.000     0.000   120.790
     0.000     0.000   120.790
     0.000     0.000   127.890
     0.000     0.000   127.890
     0.000     0.000   135.000


     1     2
     3     4
     5     6
     7     8
     9    10
    11    12
    13    14
    15    16
    17    18
    19    20
    21    22
    23    24
    25    26
    27    28
    29    30
    31    32
    33    34
    35    36
    37    38


 ZONE T = "STRC - UNION n=           0 " , STRANDID =           15 
  , SOLUTIONTIME =   0.000000000000000E+000  , F = FEPOINT, N =           18 
  , E =            9  , ET = LINESEG , C = BLACK , PASSIVEVARLIST=[4-7]
     0.000     0.000   135.000
    -0.332     0.000   135.730
    -0.332     0.000   135.730
    -0.664     0.000   136.450
    -0.664     0.000   136.450
    -0.996     0.000   137.180
    -0.996     0.000   137.180
    -1.328     0.000   137.910
    -1.328     0.000   137.910
    -1.660     0.000   138.630
    -1.660     0.000   138.630
    -1.992     0.000   139.360
    -1.992     0.000   139.360
    -2.325     0.000   140.090
    -2.325     0.000   140.090
    -2.656     0.000   140.810
    -2.656     0.000   140.810
    -2.989    -0.000   141.541


     1     2
     3     4
     5     6
     7     8
     9    10
    11    12
    13    14
    15    16
    17    18


 ZONE T = "STRC - PALA1 n=           1 " , STRANDID =           10 
  , SOLUTIONTIME =   0.150337305688631       , F = FEPOINT, N =           70 
  , E =           35  , ET = LINESEG , C = BLACK , CONNECTIVITYSHAREZONE = 
           1  , PASSIVEVARLIST=[4-7]
     8.486    -5.191   139.505
     8.761    -7.578   137.955
     8.761    -7.578   137.955
     9.042    -9.942   136.364
     9.042    -9.942   136.364
     9.335   -12.270   134.702
     9.335   -12.270   134.702
     9.624   -14.612   133.070
     9.624   -14.612   133.070
     9.891   -17.042   131.587
     9.891   -17.042   131.587
    10.157   -19.515   130.184
    10.157   -19.515   130.184
    10.387   -22.042   128.869
    10.387   -22.042   128.869
    10.635   -24.490   127.415
    10.635   -24.490   127.415
    10.899   -27.010   126.091
    10.899   -27.010   126.091
    11.101   -29.642   124.946
    11.101   -29.642   124.946
    11.331   -32.136   123.573
    11.331   -32.136   123.573
    11.572   -34.561   122.079
    11.572   -34.561   122.079
    11.802   -37.008   120.626
    11.802   -37.008   120.626
    12.010   -39.513   119.263
    12.010   -39.513   119.263
    12.207   -42.041   117.941
    12.207   -42.041   117.941
    12.404   -44.556   116.599
    12.404   -44.556   116.599
    12.611   -47.051   115.218
    12.611   -47.051   115.218
    12.832   -49.535   113.817
    12.832   -49.535   113.817
    13.073   -52.016   112.426
    13.073   -52.016   112.426
    13.326   -54.498   111.036
    13.326   -54.498   111.036
    13.578   -56.980   109.636
    13.578   -56.980   109.636
    13.819   -59.460   108.246
    13.819   -59.460   108.246
    14.050   -61.932   106.825
    14.050   -61.932   106.825
    14.278   -64.393   105.395
    14.278   -64.393   105.395
    14.533   -66.857   103.966
    14.533   -66.857   103.966
    14.793   -69.317   102.546
    14.793   -69.317   102.546
    15.046   -71.772   101.096
    15.046   -71.772   101.096
    15.298   -74.233    99.670
    15.298   -74.233    99.670
    15.551   -76.695    98.243
    15.551   -76.695    98.243
    15.801   -79.155    96.810
    15.801   -79.155    96.810
    16.050   -81.610    95.371
    16.050   -81.610    95.371
    16.303   -84.071    93.941
    16.303   -84.071    93.941
    16.571   -86.570    92.580
    16.571   -86.570    92.580
    16.859   -89.121    91.316
    16.859   -89.121    91.316
    17.168   -91.682    90.070


 ZONE T = "STRC - PALA2 n=           1 " , STRANDID =           11 
  , SOLUTIONTIME =   0.150337305688631       , F = FEPOINT, N =           70 
  , E =           35  , ET = LINESEG , C = BLACK , CONNECTIVITYSHAREZONE = 
           2  , PASSIVEVARLIST=[4-7]
     8.486     5.191   139.505
     8.735     7.747   138.245
     8.735     7.747   138.245
     8.985    10.324   137.023
     8.985    10.324   137.023
     9.234    12.937   135.851
     9.234    12.937   135.851
     9.485    15.535   134.658
     9.485    15.535   134.658
     9.739    18.044   133.315
     9.739    18.044   133.315
    10.007    20.509   131.900
    10.007    20.509   131.900
    10.253    22.922   130.386
    10.253    22.922   130.386
    10.494    25.413   129.001
    10.494    25.413   129.001
    10.772    27.830   127.506
    10.772    27.830   127.506
    11.023    30.139   125.811
    11.023    30.139   125.811
    11.259    32.584   124.347
    11.259    32.584   124.347
    11.486    35.101   123.012
    11.486    35.101   123.012
    11.708    37.595   121.638
    11.708    37.595   121.638
    11.927    40.034   120.164
    11.927    40.034   120.164
    12.142    42.450   118.641
    12.142    42.450   118.641
    12.354    44.879   117.158
    12.354    44.879   117.158
    12.568    47.330   115.696
    12.568    47.330   115.696
    12.794    49.792   114.264
    12.794    49.792   114.264
    13.040    52.254   112.833
    13.040    52.254   112.833
    13.296    54.716   111.413
    13.296    54.716   111.413
    13.553    57.177   109.984
    13.553    57.177   109.984
    13.797    59.643   108.554
    13.797    59.643   108.554
    14.026    62.117   107.146
    14.026    62.117   107.146
    14.249    64.602   105.757
    14.249    64.602   105.757
    14.500    67.083   104.359
    14.500    67.083   104.359
    14.757    69.567   102.970
    14.757    69.567   102.970
    15.004    72.056   101.591
    15.004    72.056   101.591
    15.252    74.540   100.202
    15.252    74.540   100.202
    15.501    77.022    98.808
    15.501    77.022    98.808
    15.747    79.507    97.420
    15.747    79.507    97.420
    15.992    81.995    96.036
    15.992    81.995    96.036
    16.242    84.478    94.644
    16.242    84.478    94.644
    16.518    86.922    93.189
    16.518    86.922    93.189
    16.830    89.311    91.643
    16.830    89.311    91.643
    17.166    91.689    90.084


 ZONE T = "STRC - PALA3 n=           1 " , STRANDID =           12 
  , SOLUTIONTIME =   0.150337305688631       , F = FEPOINT, N =           70 
  , E =           35  , ET = LINESEG , C = BLACK , CONNECTIVITYSHAREZONE = 
           3  , PASSIVEVARLIST=[4-7]
     7.703     0.000   148.465
     7.592    -0.169   151.325
     7.592    -0.169   151.325
     7.483    -0.382   154.175
     7.483    -0.382   154.175
     7.379    -0.667   157.035
     7.379    -0.667   157.035
     7.273    -0.923   159.885
     7.273    -0.923   159.885
     7.156    -1.002   162.744
     7.156    -1.002   162.744
     7.045    -0.993   165.594
     7.045    -0.993   165.594
     6.904    -0.879   168.454
     6.904    -0.879   168.454
     6.770    -0.922   171.303
     6.770    -0.922   171.303
     6.662    -0.819   174.163
     6.662    -0.819   174.163
     6.511    -0.496   177.013
     6.511    -0.496   177.013
     6.367    -0.448   179.862
     6.367    -0.448   179.862
     6.227    -0.540   182.722
     6.227    -0.540   182.722
     6.079    -0.587   185.572
     6.079    -0.587   185.572
     5.921    -0.521   188.422
     5.921    -0.521   188.422
     5.758    -0.411   191.282
     5.758    -0.411   191.282
     5.595    -0.326   194.132
     5.595    -0.326   194.132
     5.439    -0.283   196.982
     5.439    -0.283   196.982
     5.297    -0.263   199.842
     5.297    -0.263   199.842
     5.175    -0.244   202.693
     5.175    -0.244   202.693
     5.065    -0.223   205.543
     5.065    -0.223   205.543
     4.952    -0.202   208.403
     4.952    -0.202   208.403
     4.824    -0.187   211.253
     4.824    -0.187   211.253
     4.681    -0.187   214.113
     4.681    -0.187   214.113
     4.532    -0.210   216.963
     4.532    -0.210   216.963
     4.408    -0.223   219.813
     4.408    -0.223   219.813
     4.289    -0.245   222.672
     4.289    -0.245   222.672
     4.161    -0.279   225.522
     4.161    -0.279   225.522
     4.036    -0.302   228.382
     4.036    -0.302   228.382
     3.913    -0.322   231.232
     3.913    -0.322   231.232
     3.790    -0.350   234.092
     3.790    -0.350   234.092
     3.667    -0.384   236.942
     3.667    -0.384   236.942
     3.546    -0.408   239.802
     3.546    -0.408   239.802
     3.444    -0.354   242.652
     3.444    -0.354   242.652
     3.370    -0.193   245.512
     3.370    -0.193   245.512
     3.319    -0.012   248.372


 ZONE T = "STRC - CUBO n=           1 " , STRANDID =           13 
  , SOLUTIONTIME =   0.150337305688631       , F = FEPOINT, N =            2 
  , E =            1  , ET = LINESEG , C = BLACK , CONNECTIVITYSHAREZONE = 
           4  , PASSIVEVARLIST=[4-7]
     7.965     0.000   142.475
     7.965     0.000   142.475


 ZONE T = "STRC - TORRE n=           1 " , STRANDID =           14 
  , SOLUTIONTIME =   0.150337305688631       , F = FEPOINT, N =           38 
  , E =           19  , ET = LINESEG , C = BLACK , CONNECTIVITYSHAREZONE = 
           5  , PASSIVEVARLIST=[4-7]
     0.000     0.000     0.000
     0.000    -0.000     7.104
     0.000    -0.000     7.104
     0.000    -0.000    14.209
     0.000    -0.000    14.209
     0.001    -0.000    21.313
     0.001    -0.000    21.313
     0.002    -0.000    28.418
     0.002    -0.000    28.418
     0.003    -0.000    35.522
     0.003    -0.000    35.522
     0.005    -0.000    42.627
     0.005    -0.000    42.627
     0.007    -0.000    49.731
     0.007    -0.000    49.731
     0.010    -0.000    56.835
     0.010    -0.000    56.835
     0.013    -0.000    63.939
     0.013    -0.000    63.939
     0.016    -0.000    71.044
     0.016    -0.000    71.044
     0.018    -0.000    78.148
     0.018    -0.000    78.148
     0.021     0.000    85.252
     0.021     0.000    85.252
     0.022     0.000    92.356
     0.022     0.000    92.356
     0.022     0.000    99.461
     0.022     0.000    99.461
     0.020     0.000   106.566
     0.020     0.000   106.566
     0.017     0.000   113.665
     0.017     0.000   113.665
     0.012     0.000   120.773
     0.012     0.000   120.773
     0.006     0.000   127.872
     0.006     0.000   127.872
     0.000     0.000   134.981


 ZONE T = "STRC - UNION n=           1 " , STRANDID =           15 
  , SOLUTIONTIME =   0.150337305688631       , F = FEPOINT, N =           18 
  , E =            9  , ET = LINESEG , C = BLACK , CONNECTIVITYSHAREZONE = 
           6  , PASSIVEVARLIST=[4-7]
     0.000     0.000   134.981
    -0.333     0.000   135.710
    -0.333     0.000   135.710
    -0.665     0.000   136.430
    -0.665     0.000   136.430
    -0.998     0.000   137.160
    -0.998     0.000   137.160
    -1.331     0.000   137.889
    -1.331     0.000   137.889
    -1.664     0.000   138.609
    -1.664     0.000   138.609
    -1.996     0.000   139.338
    -1.996     0.000   139.338
    -2.329     0.000   140.068
    -2.329     0.000   140.068
    -2.661     0.000   140.788
    -2.661     0.000   140.788
    -2.994     0.000   141.517


 ZONE T = "STRC - PALA1 n=           2 " , STRANDID =           10 
  , SOLUTIONTIME =   0.300674611377259       , F = FEPOINT, N =           70 
  , E =           35  , ET = LINESEG , C = BLACK , CONNECTIVITYSHAREZONE = 
           1  , PASSIVEVARLIST=[4-7]
     8.484    -5.191   139.496
     8.758    -7.578   137.945
     8.758    -7.578   137.945
     9.038    -9.942   136.354
     9.038    -9.942   136.354
     9.328   -12.269   134.691
     9.328   -12.269   134.691
     9.615   -14.610   133.057
     9.615   -14.610   133.057
     9.879   -17.039   131.572
     9.879   -17.039   131.572
    10.143   -19.511   130.165
    10.143   -19.511   130.165
    10.369   -22.036   128.848
    10.369   -22.036   128.848
    10.613   -24.483   127.390
    10.613   -24.483   127.390
    10.873   -27.000   126.061
    10.873   -27.000   126.061
    11.072   -29.630   124.911
    11.072   -29.630   124.911
    11.300   -32.121   123.532
    11.300   -32.121   123.532
    11.539   -34.543   122.032
    11.539   -34.543   122.032
    11.767   -36.986   120.572
    11.767   -36.986   120.572
    11.975   -39.486   119.201
    11.975   -39.486   119.201
    12.173   -42.009   117.869
    12.173   -42.009   117.869
    12.373   -44.519   116.517
    12.373   -44.519   116.517
    12.583   -47.008   115.126
    12.583   -47.008   115.126
    12.807   -49.485   113.714
    12.807   -49.485   113.714
    13.052   -51.960   112.312
    13.052   -51.960   112.312
    13.308   -54.435   110.911
    13.308   -54.435   110.911
    13.563   -56.911   109.499
    13.563   -56.911   109.499
    13.804   -59.385   108.098
    13.804   -59.385   108.098
    14.034   -61.851   106.668
    14.034   -61.851   106.668
    14.258   -64.307   105.229
    14.258   -64.307   105.229
    14.507   -66.767   103.791
    14.507   -66.767   103.791
    14.759   -69.223   102.364
    14.759   -69.223   102.364
    15.001   -71.676   100.908
    15.001   -71.676   100.908
    15.243   -74.135    99.477
    15.243   -74.135    99.477
    15.486   -76.595    98.045
    15.486   -76.595    98.045
    15.729   -79.053    96.608
    15.729   -79.053    96.608
    15.976   -81.506    95.165
    15.976   -81.506    95.165
    16.231   -83.965    93.732
    16.231   -83.965    93.732
    16.509   -86.461    92.367
    16.509   -86.461    92.367
    16.816   -89.007    91.098
    16.816   -89.007    91.098
    17.158   -91.561    89.848


 ZONE T = "STRC - PALA2 n=           2 " , STRANDID =           11 
  , SOLUTIONTIME =   0.300674611377259       , F = FEPOINT, N =           70 
  , E =           35  , ET = LINESEG , C = BLACK , CONNECTIVITYSHAREZONE = 
           2  , PASSIVEVARLIST=[4-7]
     8.485     5.191   139.496
     8.734     7.747   138.235
     8.734     7.747   138.235
     8.983    10.324   137.013
     8.983    10.324   137.013
     9.231    12.937   135.840
     9.231    12.937   135.840
     9.480    15.534   134.646
     9.480    15.534   134.646
     9.733    18.042   133.300
     9.733    18.042   133.300
     9.998    20.505   131.883
     9.998    20.505   131.883
    10.241    22.917   130.365
    10.241    22.917   130.365
    10.479    25.406   128.976
    10.479    25.406   128.976
    10.752    27.820   127.476
    10.752    27.820   127.476
    10.999    30.126   125.776
    10.999    30.126   125.776
    11.231    32.568   124.305
    11.231    32.568   124.305
    11.454    35.081   122.963
    11.454    35.081   122.963
    11.672    37.571   121.581
    11.672    37.571   121.581
    11.888    40.005   120.098
    11.888    40.005   120.098
    12.099    42.415   118.566
    12.099    42.415   118.566
    12.309    44.839   117.073
    12.309    44.839   117.073
    12.522    47.284   115.600
    12.522    47.284   115.600
    12.747    49.738   114.158
    12.747    49.738   114.158
    12.993    52.194   112.715
    12.993    52.194   112.715
    13.251    54.649   111.283
    13.251    54.649   111.283
    13.509    57.103   109.842
    13.509    57.103   109.842
    13.756    59.562   108.401
    13.756    59.562   108.401
    13.988    62.030   106.981
    13.988    62.030   106.981
    14.213    64.508   105.582
    14.213    64.508   105.582
    14.467    66.983   104.173
    14.467    66.983   104.173
    14.725    69.461   102.775
    14.725    69.461   102.775
    14.973    71.946   101.388
    14.973    71.946   101.388
    15.221    74.425    99.991
    15.221    74.425    99.991
    15.470    76.903    98.590
    15.470    76.903    98.590
    15.717    79.385    97.195
    15.717    79.385    97.195
    15.963    81.869    95.806
    15.963    81.869    95.806
    16.215    84.349    94.409
    16.215    84.349    94.409
    16.494    86.790    92.950
    16.494    86.790    92.950
    16.813    89.176    91.401
    16.813    89.176    91.401
    17.162    91.551    89.839


 ZONE T = "STRC - PALA3 n=           2 " , STRANDID =           12 
  , SOLUTIONTIME =   0.300674611377259       , F = FEPOINT, N =           70 
  , E =           35  , ET = LINESEG , C = BLACK , CONNECTIVITYSHAREZONE = 
           3  , PASSIVEVARLIST=[4-7]
     7.705    -0.000   148.456
     7.595    -0.169   151.316
     7.595    -0.169   151.316
     7.489    -0.382   154.166
     7.489    -0.382   154.166
     7.387    -0.667   157.026
     7.387    -0.667   157.026
     7.285    -0.923   159.876
     7.285    -0.923   159.876
     7.173    -1.002   162.736
     7.173    -1.002   162.736
     7.067    -0.994   165.586
     7.067    -0.994   165.586
     6.931    -0.880   168.446
     6.931    -0.880   168.446
     6.802    -0.924   171.295
     6.802    -0.924   171.295
     6.700    -0.821   174.155
     6.700    -0.821   174.155
     6.552    -0.498   177.005
     6.552    -0.498   177.005
     6.411    -0.449   179.855
     6.411    -0.449   179.855
     6.270    -0.542   182.715
     6.270    -0.542   182.715
     6.120    -0.587   185.564
     6.120    -0.587   185.564
     5.957    -0.520   188.414
     5.957    -0.520   188.414
     5.786    -0.407   191.274
     5.786    -0.407   191.274
     5.611    -0.320   194.123
     5.611    -0.320   194.123
     5.441    -0.275   196.972
     5.441    -0.275   196.972
     5.283    -0.251   199.832
     5.283    -0.251   199.832
     5.144    -0.229   202.681
     5.144    -0.229   202.681
     5.015    -0.205   205.530
     5.015    -0.205   205.530
     4.885    -0.183   208.390
     4.885    -0.183   208.390
     4.743    -0.166   211.239
     4.743    -0.166   211.239
     4.590    -0.166   214.098
     4.590    -0.166   214.098
     4.435    -0.189   216.948
     4.435    -0.189   216.948
     4.312    -0.205   219.798
     4.312    -0.205   219.798
     4.200    -0.231   222.658
     4.200    -0.231   222.658
     4.086    -0.269   225.508
     4.086    -0.269   225.508
     3.978    -0.297   228.369
     3.978    -0.297   228.369
     3.873    -0.323   231.219
     3.873    -0.323   231.219
     3.767    -0.355   234.080
     3.767    -0.355   234.080
     3.653    -0.394   236.930
     3.653    -0.394   236.930
     3.533    -0.419   239.790
     3.533    -0.419   239.790
     3.418    -0.366   242.640
     3.418    -0.366   242.640
     3.316    -0.203   245.499
     3.316    -0.203   245.499
     3.211    -0.016   248.357


 ZONE T = "STRC - CUBO n=           2 " , STRANDID =           13 
  , SOLUTIONTIME =   0.300674611377259       , F = FEPOINT, N =            2 
  , E =            1  , ET = LINESEG , C = BLACK , CONNECTIVITYSHAREZONE = 
           4  , PASSIVEVARLIST=[4-7]
     7.964    -0.000   142.466
     7.964    -0.000   142.466


 ZONE T = "STRC - TORRE n=           2 " , STRANDID =           14 
  , SOLUTIONTIME =   0.300674611377259       , F = FEPOINT, N =           38 
  , E =           19  , ET = LINESEG , C = BLACK , CONNECTIVITYSHAREZONE = 
           5  , PASSIVEVARLIST=[4-7]
     0.000     0.000     0.000
    -0.001    -0.000     7.104
    -0.001    -0.000     7.104
    -0.003    -0.000    14.209
    -0.003    -0.000    14.209
    -0.005    -0.000    21.313
    -0.005    -0.000    21.313
    -0.008    -0.000    28.417
    -0.008    -0.000    28.417
    -0.010    -0.000    35.521
    -0.010    -0.000    35.521
    -0.013    -0.000    42.626
    -0.013    -0.000    42.626
    -0.015     0.000    49.730
    -0.015     0.000    49.730
    -0.016     0.000    56.833
    -0.016     0.000    56.833
    -0.016     0.000    63.937
    -0.016     0.000    63.937
    -0.016     0.000    71.042
    -0.016     0.000    71.042
    -0.015     0.000    78.146
    -0.015     0.000    78.146
    -0.013     0.000    85.249
    -0.013     0.000    85.249