 TITLE = "Structural Mesh"
 VARIABLES = "X" "Y" "Z" "n(X)" "n(Y)" "n(Z)" "Cp"


 ZONE T = "STRC - PALA1 n=           0 " , STRANDID =           10 
  , SOLUTIONTIME =   0.000000000000000E+000  , F = FEPOINT, N =           70 
  , E =           35  , ET = LINESEG , C = BLACK , PASSIVEVARLIST=[4-7]
     8.492    -5.191   139.530
     8.766    -7.578   137.980
     8.766    -7.578   137.980
     9.047    -9.943   136.390
     9.047    -9.943   136.390
     9.340   -12.272   134.730
     9.340   -12.272   134.730
     9.629   -14.615   133.100
     9.629   -14.615   133.100
     9.895   -17.047   131.620
     9.895   -17.047   131.620
    10.161   -19.522   130.220
    10.161   -19.522   130.220
    10.390   -22.051   128.910
    10.390   -22.051   128.910
    10.637   -24.502   127.460
    10.637   -24.502   127.460
    10.900   -27.024   126.140
    10.900   -27.024   126.140
    11.102   -29.658   125.000
    11.102   -29.658   125.000
    11.332   -32.154   123.630
    11.332   -32.154   123.630
    11.574   -34.581   122.140
    11.574   -34.581   122.140
    11.805   -37.030   120.690
    11.805   -37.030   120.690
    12.015   -39.536   119.330
    12.015   -39.536   119.330
    12.215   -42.065   118.010
    12.215   -42.065   118.010
    12.416   -44.581   116.670
    12.416   -44.581   116.670
    12.626   -47.076   115.290
    12.626   -47.076   115.290
    12.851   -49.560   113.890
    12.851   -49.560   113.890
    13.096   -52.041   112.500
    13.096   -52.041   112.500
    13.352   -54.523   111.110
    13.352   -54.523   111.110
    13.607   -57.005   109.710
    13.607   -57.005   109.710
    13.849   -59.485   108.320
    13.849   -59.485   108.320
    14.080   -61.957   106.900
    14.080   -61.957   106.900
    14.307   -64.418   105.470
    14.307   -64.418   105.470
    14.560   -66.882   104.040
    14.560   -66.882   104.040
    14.819   -69.342   102.620
    14.819   -69.342   102.620
    15.070   -71.797   101.170
    15.070   -71.797   101.170
    15.322   -74.258    99.744
    15.322   -74.258    99.744
    15.575   -76.720    98.317
    15.575   -76.720    98.317
    15.826   -79.179    96.883
    15.826   -79.179    96.883
    16.077   -81.634    95.444
    16.077   -81.634    95.444
    16.330   -84.095    94.014
    16.330   -84.095    94.014
    16.596   -86.594    92.653
    16.596   -86.594    92.653
    16.882   -89.145    91.388
    16.882   -89.145    91.388
    17.188   -91.706    90.142


     1     2
     3     4
     5     6
     7     8
     9    10
    11    12
    13    14
    15    16
    17    18
    19    20
    21    22
    23    24
    25    26
    27    28
    29    30
    31    32
    33    34
    35    36
    37    38
    39    40
    41    42
    43    44
    45    46
    47    48
    49    50
    51    52
    53    54
    55    56
    57    58
    59    60
    61    62
    63    64
    65    66
    67    68
    69    70


 ZONE T = "STRC - PALA2 n=           0 " , STRANDID =           11 
  , SOLUTIONTIME =   0.000000000000000E+000  , F = FEPOINT, N =           70 
  , E =           35  , ET = LINESEG , C = BLACK , PASSIVEVARLIST=[4-7]
     8.492     5.191   139.530
     8.741     7.747   138.270
     8.741     7.747   138.270
     8.990    10.325   137.050
     8.990    10.325   137.050
     9.239    12.939   135.880
     9.239    12.939   135.880
     9.489    15.538   134.690
     9.489    15.538   134.690
     9.744    18.049   133.350
     9.744    18.049   133.350
    10.011    20.516   131.940
    10.011    20.516   131.940
    10.257    22.932   130.430
    10.257    22.932   130.430
    10.498    25.426   129.050
    10.498    25.426   129.050
    10.776    27.846   127.560
    10.776    27.846   127.560
    11.027    30.158   125.870
    11.027    30.158   125.870
    11.264    32.606   124.410
    11.264    32.606   124.410
    11.492    35.125   123.080
    11.492    35.125   123.080
    11.715    37.621   121.710
    11.715    37.621   121.710
    11.936    40.062   120.240
    11.936    40.062   120.240
    12.152    42.480   118.720
    12.152    42.480   118.720
    12.366    44.911   117.240
    12.366    44.911   117.240
    12.583    47.363   115.780
    12.583    47.363   115.780
    12.811    49.825   114.350
    12.811    49.825   114.350
    13.059    52.288   112.920
    13.059    52.288   112.920
    13.318    54.749   111.500
    13.318    54.749   111.500
    13.576    57.210   110.070
    13.576    57.210   110.070
    13.821    59.675   108.640
    13.821    59.675   108.640
    14.051    62.149   107.230
    14.051    62.149   107.230
    14.274    64.633   105.840
    14.274    64.633   105.840
    14.525    67.113   104.440
    14.525    67.113   104.440
    14.781    69.596   103.050
    14.781    69.596   103.050
    15.027    72.085   101.670
    15.027    72.085   101.670
    15.275    74.568   100.280
    15.275    74.568   100.280
    15.525    77.050    98.886
    15.525    77.050    98.886
    15.772    79.535    97.498
    15.772    79.535    97.498
    16.018    82.023    96.115
    16.018    82.023    96.115
    16.268    84.506    94.723
    16.268    84.506    94.723
    16.542    86.950    93.268
    16.542    86.950    93.268
    16.852    89.339    91.722
    16.852    89.339    91.722
    17.186    91.717    90.162


     1     2
     3     4
     5     6
     7     8
     9    10
    11    12
    13    14
    15    16
    17    18
    19    20
    21    22
    23    24
    25    26
    27    28
    29    30
    31    32
    33    34
    35    36
    37    38
    39    40
    41    42
    43    44
    45    46
    47    48
    49    50
    51    52
    53    54
    55    56
    57    58
    59    60
    61    62
    63    64
    65    66
    67    68
    69    70


 ZONE T = "STRC - PALA3 n=           0 " , STRANDID =           12 
  , SOLUTIONTIME =   0.000000000000000E+000  , F = FEPOINT, N =           70 
  , E =           35  , ET = LINESEG , C = BLACK , PASSIVEVARLIST=[4-7]
     7.708    -0.000   148.490
     7.596    -0.169   151.350
     7.596    -0.169   151.350
     7.489    -0.382   154.200
     7.489    -0.382   154.200
     7.386    -0.667   157.060
     7.386    -0.667   157.060
     7.283    -0.923   159.910
     7.283    -0.923   159.910
     7.170    -1.002   162.770
     7.170    -1.002   162.770
     7.064    -0.994   165.620
     7.064    -0.994   165.620
     6.928    -0.880   168.480
     6.928    -0.880   168.480
     6.799    -0.924   171.330
     6.799    -0.924   171.330
     6.697    -0.822   174.190
     6.697    -0.822   174.190
     6.550    -0.500   177.040
     6.550    -0.500   177.040
     6.410    -0.452   179.890
     6.410    -0.452   179.890
     6.272    -0.545   182.750
     6.272    -0.545   182.750
     6.125    -0.591   185.600
     6.125    -0.591   185.600
     5.967    -0.525   188.450
     5.967    -0.525   188.450
     5.802    -0.415   191.310
     5.802    -0.415   191.310
     5.636    -0.330   194.160
     5.636    -0.330   194.160
     5.476    -0.287   197.010
     5.476    -0.287   197.010
     5.330    -0.266   199.870
     5.330    -0.266   199.870
     5.203    -0.246   202.720
     5.203    -0.246   202.720
     5.088    -0.225   205.570
     5.088    -0.225   205.570
     4.971    -0.205   208.430
     4.971    -0.205   208.430
     4.841    -0.191   211.280
     4.841    -0.191   211.280
     4.698    -0.192   214.140
     4.698    -0.192   214.140
     4.550    -0.216   216.990
     4.550    -0.216   216.990
     4.429    -0.230   219.840
     4.429    -0.230   219.840
     4.313    -0.253   222.700
     4.313    -0.253   222.700
     4.189    -0.287   225.550
     4.189    -0.287   225.550
     4.066    -0.311   228.410
     4.066    -0.311   228.410
     3.943    -0.330   231.260
     3.943    -0.330   231.260
     3.820    -0.356   234.120
     3.820    -0.356   234.120
     3.695    -0.389   236.970
     3.695    -0.389   236.970
     3.573    -0.411   239.830
     3.573    -0.411   239.830
     3.470    -0.356   242.680
     3.470    -0.356   242.680
     3.395    -0.194   245.540
     3.395    -0.194   245.540
     3.342    -0.012   248.400


     1     2
     3     4
     5     6
     7     8
     9    10
    11    12
    13    14
    15    16
    17    18
    19    20
    21    22
    23    24
    25    26
    27    28
    29    30
    31    32
    33    34
    35    36
    37    38
    39    40
    41    42
    43    44
    45    46
    47    48
    49    50
    51    52
    53    54
    55    56
    57    58
    59    60
    61    62
    63    64
    65    66
    67    68
    69    70


 ZONE T = "STRC - CUBO n=           0 " , STRANDID =           13 
  , SOLUTIONTIME =   0.000000000000000E+000  , F = FEPOINT, N =            2 
  , E =            1  , ET = LINESEG , C = BLACK , PASSIVEVARLIST=[4-7]
     7.970     0.000   142.500
     7.970     0.000   142.500


           1           2


 ZONE T = "STRC - TORRE n=           0 " , STRANDID =           14 
  , SOLUTIONTIME =   0.000000000000000E+000  , F = FEPOINT, N =           38 
  , E =           19  , ET = LINESEG , C = BLACK , PASSIVEVARLIST=[4-7]
     0.000     0.000     0.000
     0.000     0.000     7.105
     0.000     0.000     7.105
     0.000     0.000    14.211
     0.000     0.000    14.211
     0.000     0.000    21.316
     0.000     0.000    21.316
     0.000     0.000    28.421
     0.000     0.000    28.421
     0.000     0.000    35.526
     0.000     0.000    35.526
     0.000     0.000    42.632
     0.000     0.000    42.632
     0.000     0.000    49.737
     0.000     0.000    49.737
     0.000     0.000    56.842
     0.000     0.000    56.842
     0.000     0.000    63.947
     0.000     0.000    63.947
     0.000     0.000    71.053
     0.000     0.000    71.053
     0.000     0.000    78.158
     0.000     0.000    78.158
     0.000     0.000    85.263
     0.000     0.000    85.263
     0.000     0.000    92.368
     0.000     0.000    92.368
     0.000     0.000    99.474
     0.000     0.000    99.474
     0.000     0.000   106.580
     0.000     0.000   106.580
     0.000     0.000   113.680
     0.000     0.000   113.680
     0.000     0.000   120.790
     0.000     0.000   120.790
     0.000     0.000   127.890
     0.000     0.000   127.890
     0.000     0.000   135.000


     1     2
     3     4
     5     6
     7     8
     9    10
    11    12
    13    14
    15    16
    17    18
    19    20
    21    22
    23    24
    25    26
    27    28
    29    30
    31    32
    33    34
    35    36
    37    38


 ZONE T = "STRC - UNION n=           0 " , STRANDID =           15 
  , SOLUTIONTIME =   0.000000000000000E+000  , F = FEPOINT, N =           18 
  , E =            9  , ET = LINESEG , C = BLACK , PASSIVEVARLIST=[4-7]
     0.000     0.000   135.000
    -0.332     0.000   135.730
    -0.332     0.000   135.730
    -0.664     0.000   136.450
    -0.664     0.000   136.450
    -0.996     0.000   137.180
    -0.996     0.000   137.180
    -1.328     0.000   137.910
    -1.328     0.000   137.910
    -1.660     0.000   138.630
    -1.660     0.000   138.630
    -1.992     0.000   139.360
    -1.992     0.000   139.360
    -2.325     0.000   140.090
    -2.325     0.000   140.090
    -2.656     0.000   140.810
    -2.656     0.000   140.810
    -2.989    -0.000   141.541


     1     2
     3     4
     5     6
     7     8
     9    10
    11    12
    13    14
    15    16
    17    18


 ZONE T = "STRC - PALA1 n=           1 " , STRANDID =           10 
  , SOLUTIONTIME =   0.150337305688631       , F = FEPOINT, N =           70 
  , E =           35  , ET = LINESEG , C = BLACK , CONNECTIVITYSHAREZONE = 
           1  , PASSIVEVARLIST=[4-7]
     8.489    -5.191   139.481
     8.766    -7.578   137.931
     8.766    -7.578   137.931
     9.049    -9.942   136.341
     9.049    -9.942   136.341
     9.343   -12.271   134.680
     9.343   -12.271   134.680
     9.634   -14.613   133.049
     9.634   -14.613   133.049
     9.901   -17.044   131.568
     9.901   -17.044   131.568
    10.168   -19.518   130.166
    10.168   -19.518   130.166
    10.397   -22.046   128.853
    10.397   -22.046   128.853
    10.644   -24.495   127.401
    10.644   -24.495   127.401
    10.907   -27.016   126.079
    10.907   -27.016   126.079
    11.107   -29.649   124.936
    11.107   -29.649   124.936
    11.336   -32.144   123.564
    11.336   -32.144   123.564
    11.576   -34.570   122.072
    11.576   -34.570   122.072
    11.805   -37.019   120.621
    11.805   -37.019   120.621
    12.012   -39.524   119.259
    12.012   -39.524   119.259
    12.209   -42.053   117.937
    12.209   -42.053   117.937
    12.406   -44.568   116.596
    12.406   -44.568   116.596
    12.613   -47.063   115.215
    12.613   -47.063   115.215
    12.834   -49.547   113.814
    12.834   -49.547   113.814
    13.076   -52.027   112.423
    13.076   -52.027   112.423
    13.329   -54.509   111.032
    13.329   -54.509   111.032
    13.582   -56.991   109.632
    13.582   -56.991   109.632
    13.822   -59.471   108.241
    13.822   -59.471   108.241
    14.052   -61.943   106.821
    14.052   -61.943   106.821
    14.279   -64.404   105.391
    14.279   -64.404   105.391
    14.532   -66.868   103.960
    14.532   -66.868   103.960
    14.792   -69.328   102.540
    14.792   -69.328   102.540
    15.044   -71.782   101.090
    15.044   -71.782   101.090
    15.297   -74.243    99.664
    15.297   -74.243    99.664
    15.550   -76.705    98.237
    15.550   -76.705    98.237
    15.802   -79.164    96.803
    15.802   -79.164    96.803
    16.053   -81.619    95.364
    16.053   -81.619    95.364
    16.306   -84.080    93.934
    16.306   -84.080    93.934
    16.572   -86.580    92.573
    16.572   -86.580    92.573
    16.859   -89.131    91.309
    16.859   -89.131    91.309
    17.166   -91.691    90.063


 ZONE T = "STRC - PALA2 n=           1 " , STRANDID =           11 
  , SOLUTIONTIME =   0.150337305688631       , F = FEPOINT, N =           70 
  , E =           35  , ET = LINESEG , C = BLACK , CONNECTIVITYSHAREZONE = 
           2  , PASSIVEVARLIST=[4-7]
     8.489     5.191   139.481
     8.740     7.747   138.221
     8.740     7.747   138.221
     8.991    10.325   137.000
     8.991    10.325   137.000
     9.241    12.938   135.829
     9.241    12.938   135.829
     9.493    15.536   134.638
     9.493    15.536   134.638
     9.748    18.046   133.296
     9.748    18.046   133.296
    10.016    20.512   131.883
    10.016    20.512   131.883
    10.262    22.926   130.370
    10.262    22.926   130.370
    10.503    25.418   128.987
    10.503    25.418   128.987
    10.780    27.837   127.494
    10.780    27.837   127.494
    11.030    30.147   125.801
    11.030    30.147   125.801
    11.266    32.593   124.338
    11.266    32.593   124.338
    11.492    35.110   123.005
    11.492    35.110   123.005
    11.712    37.605   121.632
    11.712    37.605   121.632
    11.931    40.045   120.159
    11.931    40.045   120.159
    12.144    42.461   118.637
    12.144    42.461   118.637
    12.356    44.891   117.154
    12.356    44.891   117.154
    12.570    47.342   115.693
    12.570    47.342   115.693
    12.796    49.804   114.261
    12.796    49.804   114.261
    13.041    52.266   112.830
    13.041    52.266   112.830
    13.298    54.727   111.409
    13.298    54.727   111.409
    13.554    57.188   109.979
    13.554    57.188   109.979
    13.798    59.654   108.549
    13.798    59.654   108.549
    14.027    62.128   107.140
    14.027    62.128   107.140
    14.250    64.612   105.750
    14.250    64.612   105.750
    14.501    67.093   104.351
    14.501    67.093   104.351
    14.757    69.576   102.962
    14.757    69.576   102.962
    15.003    72.066   101.583
    15.003    72.066   101.583
    15.251    74.549   100.194
    15.251    74.549   100.194
    15.502    77.032    98.801
    15.502    77.032    98.801
    15.749    79.517    97.413
    15.749    79.517    97.413
    15.994    82.005    96.031
    15.994    82.005    96.031
    16.244    84.489    94.639
    16.244    84.489    94.639
    16.519    86.933    93.185
    16.519    86.933    93.185
    16.830    89.322    91.640
    16.830    89.322    91.640
    17.165    91.701    90.081


 ZONE T = "STRC - PALA3 n=           1 " , STRANDID =           12 
  , SOLUTIONTIME =   0.150337305688631       , F = FEPOINT, N =           70 
  , E =           35  , ET = LINESEG , C = BLACK , CONNECTIVITYSHAREZONE = 
           3  , PASSIVEVARLIST=[4-7]
     7.694     0.000   148.440
     7.578    -0.168   151.300
     7.578    -0.168   151.300
     7.466    -0.382   154.149
     7.466    -0.382   154.149
     7.360    -0.667   157.009
     7.360    -0.667   157.009
     7.253    -0.923   159.859
     7.253    -0.923   159.859
     7.136    -1.001   162.719
     7.136    -1.001   162.719
     7.025    -0.993   165.568
     7.025    -0.993   165.568
     6.886    -0.879   168.428
     6.886    -0.879   168.428
     6.754    -0.922   171.278
     6.754    -0.922   171.278
     6.649    -0.819   174.138
     6.649    -0.819   174.138
     6.501    -0.497   176.988
     6.501    -0.497   176.988
     6.360    -0.448   179.837
     6.360    -0.448   179.837
     6.222    -0.541   182.697
     6.222    -0.541   182.697
     6.077    -0.588   185.547
     6.077    -0.588   185.547
     5.920    -0.522   188.397
     5.920    -0.522   188.397
     5.758    -0.412   191.258
     5.758    -0.412   191.258
     5.596    -0.327   194.108
     5.596    -0.327   194.108
     5.440    -0.284   196.958
     5.440    -0.284   196.958
     5.297    -0.263   199.818
     5.297    -0.263   199.818
     5.174    -0.244   202.668
     5.174    -0.244   202.668
     5.063    -0.223   205.518
     5.063    -0.223   205.518
     4.950    -0.203   208.378
     4.950    -0.203   208.378
     4.822    -0.188   211.228
     4.822    -0.188   211.228
     4.680    -0.188   214.088
     4.680    -0.188   214.088
     4.532    -0.211   216.938
     4.532    -0.211   216.938
     4.410    -0.226   219.788
     4.410    -0.226   219.788
     4.293    -0.248   222.648
     4.293    -0.248   222.648
     4.166    -0.281   225.498
     4.166    -0.281   225.498
     4.041    -0.304   228.358
     4.041    -0.304   228.358
     3.916    -0.323   231.208
     3.916    -0.323   231.208
     3.792    -0.349   234.068
     3.792    -0.349   234.068
     3.666    -0.382   236.918
     3.666    -0.382   236.918
     3.545    -0.405   239.778
     3.545    -0.405   239.778
     3.444    -0.350   242.628
     3.444    -0.350   242.628
     3.372    -0.189   245.488
     3.372    -0.189   245.488
     3.322    -0.008   248.348


 ZONE T = "STRC - CUBO n=           1 " , STRANDID =           13 
  , SOLUTIONTIME =   0.150337305688631       , F = FEPOINT, N =            2 
  , E =            1  , ET = LINESEG , C = BLACK , CONNECTIVITYSHAREZONE = 
           4  , PASSIVEVARLIST=[4-7]
     7.964     0.000   142.450
     7.964     0.000   142.450


 ZONE T = "STRC - TORRE n=           1 " , STRANDID =           14 
  , SOLUTIONTIME =   0.150337305688631       , F = FEPOINT, N =           38 
  , E =           19  , ET = LINESEG , C = BLACK , CONNECTIVITYSHAREZONE = 
           5  , PASSIVEVARLIST=[4-7]
    -0.000    -0.000    -0.038
    -0.000    -0.000     7.067
    -0.000    -0.000     7.067
    -0.000    -0.000    14.172
    -0.000    -0.000    14.172
     0.000    -0.000    21.276
     0.000    -0.000    21.276
     0.001    -0.000    28.380
     0.001    -0.000    28.380
     0.002    -0.000    35.484
     0.002    -0.000    35.484
     0.004    -0.000    42.589
     0.004    -0.000    42.589
     0.006    -0.000    49.693
     0.006    -0.000    49.693
     0.009    -0.000    56.797
     0.009    -0.000    56.797
     0.012    -0.000    63.901
     0.012    -0.000    63.901
     0.015    -0.000    71.006
     0.015    -0.000    71.006
     0.018    -0.000    78.110
     0.018    -0.000    78.110
     0.021     0.000    85.214
     0.021     0.000    85.214
     0.024     0.000    92.318
     0.024     0.000    92.318
     0.025     0.000    99.423
     0.025     0.000    99.423
     0.026     0.000   106.528
     0.026     0.000   106.528
     0.025     0.000   113.627
     0.025     0.000   113.627
     0.021     0.000   120.736
     0.021     0.000   120.736
     0.015     0.000   127.835
     0.015     0.000   127.835
     0.007     0.000   134.943


 ZONE T = "STRC - UNION n=           1 " , STRANDID =           15 
  , SOLUTIONTIME =   0.150337305688631       , F = FEPOINT, N =           18 
  , E =            9  , ET = LINESEG , C = BLACK , CONNECTIVITYSHAREZONE = 
           6  , PASSIVEVARLIST=[4-7]
     0.007     0.000   134.943
    -0.327     0.000   135.673
    -0.327     0.000   135.673
    -0.660     0.000   136.392
    -0.660     0.000   136.392
    -0.993     0.000   137.121
    -0.993     0.000   137.121
    -1.327     0.000   137.850
    -1.327     0.000   137.850
    -1.660     0.000   138.570
    -1.660     0.000   138.570
    -1.993     0.000   139.299
    -1.993     0.000   139.299
    -2.327     0.000   140.028
    -2.327     0.000   140.028
    -2.660     0.000   140.747
    -2.660     0.000   140.747
    -2.993     0.000   141.477


