 TITLE = "Aerodynamic Grid"
 VARIABLES = "X" "Y" "Z" "n(X)" "n(Y)" "n(Z)" "Cp"


 ZONE T = "AERO - blade1 n=           0 " , STRANDID =            1 
  , SOLUTIONTIME =   0.000000000000000E+000  , F = FEPOINT, N =          391 
  , E =          324  , ET = QUADRILATERAL , C = BLUE , PASSIVEVARLIST=[4-7]
    10.564   -20.803   133.851
    10.210   -20.242   132.806
     9.879   -19.676   131.756
     9.470   -19.128   130.724
     9.036   -18.586   129.697
     8.631   -18.037   128.664
     8.325   -17.465   127.608
    10.799   -23.433   132.284
    10.486   -22.845   131.199
    10.129   -22.268   130.123
     9.667   -21.714   129.072
     9.179   -21.167   128.027
     8.756   -20.604   126.967
     8.544   -19.993   125.858
    11.012   -26.080   130.751
    10.720   -25.493   129.670
    10.388   -24.915   128.599
     9.952   -24.360   127.550
     9.493   -23.810   126.505
     9.094   -23.246   125.448
     8.887   -22.640   124.350
    11.220   -28.707   129.200
    11.000   -28.115   128.124
    10.701   -27.541   127.065
    10.255   -26.997   126.034
     9.808   -26.454   125.004
     9.424   -25.898   123.961
     9.238   -25.299   122.879
    11.427   -31.314   127.640
    11.213   -30.736   126.590
    10.933   -30.172   125.551
    10.527   -29.633   124.536
    10.116   -29.096   123.522
     9.763   -28.546   122.497
     9.589   -27.960   121.439
    11.651   -33.911   126.099
    11.449   -33.344   125.070
    11.181   -32.790   124.053
    10.794   -32.261   123.057
    10.404   -31.731   122.061
    10.073   -31.190   121.055
     9.917   -30.614   120.018
    11.880   -36.491   124.573
    11.693   -35.934   123.564
    11.431   -35.392   122.569
    11.056   -34.873   121.593
    10.680   -34.354   120.617
    10.367   -33.822   119.630
    10.234   -33.255   118.613
    12.105   -39.045   123.053
    11.923   -38.502   122.070
    11.661   -37.974   121.099
    11.311   -37.464   120.143
    10.953   -36.955   119.188
    10.657   -36.434   118.223
    10.552   -35.876   117.227
    12.324   -41.571   121.542
    12.132   -41.045   120.587
    11.870   -40.533   119.643
    11.558   -40.030   118.707
    11.223   -39.531   117.774
    10.949   -39.021   116.832
    10.871   -38.474   115.860
    12.539   -44.066   120.045
    12.329   -43.559   119.121
    12.068   -43.062   118.204
    11.793   -42.567   117.289
    11.489   -42.078   116.378
    11.242   -41.578   115.459
    11.189   -41.043   114.512
    12.752   -46.527   118.567
    12.520   -46.041   117.673
    12.265   -45.558   116.782
    12.017   -45.074   115.890
    11.750   -44.593   115.001
    11.537   -44.103   114.105
    11.499   -43.581   113.184
    12.965   -48.954   117.111
    12.715   -48.485   116.246
    12.471   -48.015   115.380
    12.242   -47.543   114.512
    12.010   -47.071   113.644
    11.829   -46.590   112.770
    11.803   -46.083   111.876
    13.176   -51.341   115.679
    12.926   -50.886   114.839
    12.696   -50.429   113.996
    12.481   -49.968   113.152
    12.276   -49.507   112.307
    12.118   -49.037   111.456
    12.098   -48.543   110.588
    13.385   -53.685   114.273
    13.155   -53.241   113.455
    12.941   -52.795   112.635
    12.739   -52.347   111.814
    12.547   -51.896   110.992
    12.401   -51.439   110.164
    12.386   -50.960   109.322
    13.591   -55.984   112.895
    13.383   -55.550   112.098
    13.185   -55.115   111.300
    12.997   -54.677   110.501
    12.815   -54.239   109.701
    12.676   -53.794   108.897
    12.666   -53.328   108.079
    13.794   -58.233   111.547
    13.592   -57.812   110.772
    13.407   -57.387   109.996
    13.235   -56.961   109.218
    13.069   -56.533   108.440
    12.944   -56.099   107.658
    12.936   -55.647   106.864
    13.993   -60.430   110.229
    13.775   -60.024   109.478
    13.600   -59.611   108.724
    13.445   -59.194   107.967
    13.305   -58.776   107.209
    13.204   -58.351   106.448
    13.198   -57.912   105.678
    14.188   -62.571   108.944
    13.953   -62.180   108.217
    13.788   -61.778   107.483
    13.649   -61.372   106.748
    13.535   -60.962   106.010
    13.456   -60.548   105.269
    13.452   -60.122   104.522
    14.379   -64.654   107.693
    14.151   -64.273   106.987
    13.997   -63.882   106.274
    13.870   -63.487   105.559
    13.769   -63.088   104.843
    13.701   -62.684   104.124
    13.698   -62.271   103.399
    14.567   -66.675   106.479
    14.354   -66.304   105.792
    14.211   -65.923   105.100
    14.092   -65.539   104.406
    13.998   -65.151   103.710
    13.935   -64.759   103.012
    13.934   -64.358   102.309
    14.750   -68.632   105.304
    14.548   -68.271   104.636
    14.413   -67.900   103.963
    14.302   -67.526   103.289
    14.214   -67.149   102.613
    14.157   -66.768   101.935
    14.159   -66.379   101.253
    14.928   -70.521   104.169
    14.735   -70.170   103.519
    14.607   -69.810   102.866
    14.503   -69.446   102.211
    14.422   -69.080   101.554
    14.370   -68.709   100.896
    14.375   -68.331   100.234
    15.100   -72.341   103.074
    14.916   -72.000   102.443
    14.795   -71.649   101.808
    14.697   -71.296   101.172
    14.622   -70.940   100.535
    14.574   -70.580    99.896
    14.583   -70.212    99.253
    15.266   -74.089   102.022
    15.090   -73.757   101.409
    14.975   -73.416   100.793
    14.884   -73.073   100.175
    14.813   -72.727    99.556
    14.770   -72.377    98.935
    14.782   -72.020    98.312
    15.425   -75.763   101.016
    15.257   -75.439   100.420
    15.148   -75.108    99.820
    15.062   -74.774    99.220
    14.996   -74.437    98.618
    14.957   -74.097    98.015
    14.971   -73.750    97.409
    15.577   -77.360   100.056
    15.416   -77.045    99.476
    15.313   -76.722    98.893
    15.231   -76.397    98.308
    15.170   -76.069    97.723
    15.134   -75.738    97.136
    15.151   -75.400    96.547
    15.722   -78.879    99.146
    15.568   -78.572    98.580
    15.469   -78.257    98.011
    15.392   -77.940    97.441
    15.335   -77.620    96.871
    15.303   -77.297    96.299
    15.321   -76.967    95.725
    15.860   -80.318    98.285
    15.711   -80.017    97.732
    15.618   -79.710    97.177
    15.545   -79.400    96.620
    15.491   -79.087    96.063
    15.461   -78.771    95.505
    15.482   -78.449    94.945
    15.990   -81.672    97.472
    15.847   -81.379    96.932
    15.757   -81.078    96.390
    15.688   -80.776    95.848
    15.638   -80.470    95.304
    15.611   -80.162    94.760
    15.633   -79.848    94.213
    16.111   -82.938    96.704
    15.974   -82.653    96.179
    15.889   -82.361    95.653
    15.824   -82.066    95.125
    15.776   -81.770    94.597
    15.753   -81.470    94.068
    15.776   -81.165    93.537
    16.223   -84.113    95.980
    16.092   -83.837    95.473
    16.012   -83.555    94.964
    15.951   -83.270    94.455
    15.907   -82.984    93.945
    15.886   -82.694    93.435
    15.910   -82.399    92.922
    16.326   -85.192    95.296
    16.202   -84.928    94.812
    16.127   -84.658    94.326
    16.070   -84.387    93.840
    16.030   -84.113    93.353
    16.011   -83.836    92.865
    16.036   -83.555    92.376
    16.419   -86.172    94.649
    16.304   -85.924    94.194
    16.235   -85.670    93.738
    16.182   -85.415    93.281
    16.145   -85.157    92.824
    16.129   -84.898    92.366
    16.153   -84.633    91.907
    16.502   -87.051    94.041
    16.397   -86.822    93.622
    16.334   -86.588    93.201
    16.286   -86.353    92.780
    16.253   -86.116    92.359
    16.239   -85.876    91.937
    16.262   -85.632    91.514
    16.576   -87.829    93.475
    16.481   -87.623    93.096
    16.425   -87.412    92.717
    16.382   -87.199    92.337
    16.353   -86.985    91.956
    16.340   -86.769    91.575
    16.362   -86.549    91.193
    16.640   -88.513    92.962
    16.557   -88.329    92.625
    16.506   -88.140    92.286
    16.469   -87.951    91.948
    16.443   -87.760    91.609
    16.432   -87.567    91.269
    16.451   -87.371    90.929
    16.696   -89.104    92.512
    16.622   -88.941    92.212
    16.578   -88.774    91.912
    16.545   -88.605    91.611
    16.522   -88.436    91.309
    16.512   -88.264    91.008
    16.529   -88.090    90.705
    16.744   -89.605    92.127
    16.678   -89.459    91.861
    16.638   -89.311    91.593
    16.609   -89.161    91.326
    16.589   -89.010    91.058
    16.581   -88.858    90.790
    16.596   -88.703    90.521
    16.782   -90.013    91.808
    16.723   -89.883    91.570
    16.689   -89.751    91.332
    16.663   -89.617    91.094
    16.645   -89.483    90.855
    16.637   -89.347    90.616
    16.651   -89.209    90.376
    16.816   -90.373    91.516
    16.764   -90.259    91.307
    16.734   -90.143    91.098
    16.711   -90.026    90.889
    16.695   -89.908    90.679
    16.689   -89.788    90.469
    16.702   -89.667    90.259
    16.848   -90.726    91.212
    16.806   -90.631    91.038
    16.780   -90.534    90.863
    16.761   -90.436    90.688
    16.748   -90.337    90.513
    16.743   -90.238    90.338
    16.753   -90.136    90.162
     9.101    -6.475   141.901
     7.634    -6.621   141.899
     6.329    -6.386   141.257
     5.535    -5.832   140.146
     5.464    -5.107   138.865
     6.136    -4.407   137.756
     7.370    -3.918   137.117
     8.837    -3.771   137.119
    10.142    -4.007   137.761
    10.937    -4.561   138.872
    11.007    -5.285   140.153
    10.335    -5.986   141.262
     9.101    -6.475   141.901
     9.144    -6.907   141.654
     7.678    -7.054   141.653
     6.373    -6.818   141.010
     5.578    -6.264   139.900
     5.507    -5.540   138.618
     6.179    -4.839   137.509
     7.414    -4.350   136.870
     8.880    -4.204   136.872
    10.186    -4.439   137.514
    10.980    -4.993   138.625
    11.051    -5.718   139.906
    10.379    -6.418   141.015
     9.144    -6.907   141.654
     9.393    -9.239   140.384
     8.086    -9.291   140.245
     6.921    -9.015   139.555
     6.184    -8.466   138.465
     6.066    -7.773   137.229
     6.589    -7.099   136.140
     7.609    -6.604   135.452
     8.910    -6.553   135.593
    10.085    -6.827   136.280
    10.825    -7.375   137.370
    10.940    -8.069   138.607
    10.407    -8.745   139.697
     9.393    -9.239   140.384
     9.637   -11.563   139.099
     8.474   -11.514   138.807
     7.435   -11.186   138.050
     6.744   -10.632   136.958
     6.572    -9.956   135.743
     6.945    -9.296   134.653
     7.754    -8.783   133.896
     8.904    -8.835   134.190
     9.964    -9.158   134.943
    10.661    -9.711   136.033
    10.827   -10.388   137.249
    10.433   -11.053   138.345
     9.637   -11.563   139.099
     9.876   -13.882   137.803
     8.882   -13.720   137.344
     7.990   -13.338   136.518
     7.356   -12.782   135.432
     7.124   -12.131   134.251
     7.329   -11.491   133.165
     7.899   -10.961   132.338
     8.872   -11.128   132.801
     9.796   -11.502   133.620
    10.442   -12.056   134.704
    10.663   -12.709   135.887
    10.425   -13.357   136.980
     9.876   -13.882   137.803
    10.111   -16.193   136.493
     9.308   -15.909   135.854
     8.584   -15.469   134.957
     8.015   -14.914   133.883
     7.720   -14.294   132.746
     7.738   -13.680   131.673
     8.042   -13.136   130.773
     8.815   -13.427   131.419
     9.585   -13.856   132.306
    10.168   -14.407   133.375
    10.448   -15.031   134.517
    10.385   -15.655   135.600
    10.111   -16.193   136.493
    10.340   -18.494   135.165
     9.748   -18.076   134.329
     9.209   -17.575   133.356
     8.713   -17.022   132.300
     8.348   -16.438   131.213
     8.161   -15.854   130.156
     8.171   -15.295   129.179
     8.725   -15.721   130.023
     9.324   -16.209   130.982
     9.839   -16.757   132.034
    10.184   -17.345   133.126
    10.312   -17.944   134.196
    10.340   -18.494   135.165
    10.564   -20.803   133.851
    10.210   -20.242   132.806
     9.879   -19.676   131.756
     9.470   -19.128   130.724
     9.036   -18.586   129.697
     8.631   -18.037   128.664
     8.325   -17.465   127.608
     8.631   -18.037   128.664
     9.036   -18.586   129.697
     9.470   -19.128   130.724
     9.879   -19.676   131.756
    10.210   -20.242   132.806
    10.564   -20.803   133.851


     1     2     9     8
     2     3    10     9
     3     4    11    10
     4     5    12    11
     5     6    13    12
     6     7    14    13
     8     9    16    15
     9    10    17    16
    10    11    18    17
    11    12    19    18
    12    13    20    19
    13    14    21    20
    15    16    23    22
    16    17    24    23
    17    18    25    24
    18    19    26    25
    19    20    27    26
    20    21    28    27
    22    23    30    29
    23    24    31    30
    24    25    32    31
    25    26    33    32
    26    27    34    33
    27    28    35    34
    29    30    37    36
    30    31    38    37
    31    32    39    38
    32    33    40    39
    33    34    41    40
    34    35    42    41
    36    37    44    43
    37    38    45    44
    38    39    46    45
    39    40    47    46
    40    41    48    47
    41    42    49    48
    43    44    51    50
    44    45    52    51
    45    46    53    52
    46    47    54    53
    47    48    55    54
    48    49    56    55
    50    51    58    57
    51    52    59    58
    52    53    60    59
    53    54    61    60
    54    55    62    61
    55    56    63    62
    57    58    65    64
    58    59    66    65
    59    60    67    66
    60    61    68    67
    61    62    69    68
    62    63    70    69
    64    65    72    71
    65    66    73    72
    66    67    74    73
    67    68    75    74
    68    69    76    75
    69    70    77    76
    71    72    79    78
    72    73    80    79
    73    74    81    80
    74    75    82    81
    75    76    83    82
    76    77    84    83
    78    79    86    85
    79    80    87    86
    80    81    88    87
    81    82    89    88
    82    83    90    89
    83    84    91    90
    85    86    93    92
    86    87    94    93
    87    88    95    94
    88    89    96    95
    89    90    97    96
    90    91    98    97
    92    93   100    99
    93    94   101   100
    94    95   102   101
    95    96   103   102
    96    97   104   103
    97    98   105   104
    99   100   107   106
   100   101   108   107
   101   102   109   108
   102   103   110   109
   103   104   111   110
   104   105   112   111
   106   107   114   113
   107   108   115   114
   108   109   116   115
   109   110   117   116
   110   111   118   117
   111   112   119   118
   113   114   121   120
   114   115   122   121
   115   116   123   122
   116   117   124   123
   117   118   125   124
   118   119   126   125
   120   121   128   127
   121   122   129   128
   122   123   130   129
   123   124   131   130
   124   125   132   131
   125   126   133   132
   127   128   135   134
   128   129   136   135
   129   130   137   136
   130   131   138   137
   131   132   139   138
   132   133   140   139
   134   135   142   141
   135   136   143   142
   136   137   144   143
   137   138   145   144
   138   139   146   145
   139   140   147   146
   141   142   149   148
   142   143   150   149
   143   144   151   150
   144   145   152   151
   145   146   153   152
   146   147   154   153
   148   149   156   155
   149   150   157   156
   150   151   158   157
   151   152   159   158
   152   153   160   159
   153   154   161   160
   155   156   163   162
   156   157   164   163
   157   158   165   164
   158   159   166   165
   159   160   167   166
   160   161   168   167
   162   163   170   169
   163   164   171   170
   164   165   172   171
   165   166   173   172
   166   167   174   173
   167   168   175   174
   169   170   177   176
   170   171   178   177
   171   172   179   178
   172   173   180   179
   173   174   181   180
   174   175   182   181
   176   177   184   183
   177   178   185   184
   178   179   186   185
   179   180   187   186
   180   181   188   187
   181   182   189   188
   183   184   191   190
   184   185   192   191
   185   186   193   192
   186   187   194   193
   187   188   195   194
   188   189   196   195
   190   191   198   197
   191   192   199   198
   192   193   200   199
   193   194   201   200
   194   195   202   201
   195   196   203   202
   197   198   205   204
   198   199   206   205
   199   200   207   206
   200   201   208   207
   201   202   209   208
   202   203   210   209
   204   205   212   211
   205   206   213   212
   206   207   214   213
   207   208   215   214
   208   209   216   215
   209   210   217   216
   211   212   219   218
   212   213   220   219
   213   214   221   220
   214   215   222   221
   215   216   223   222
   216   217   224   223
   218   219   226   225
   219   220   227   226
   220   221   228   227
   221   222   229   228
   222   223   230   229
   223   224   231   230
   225   226   233   232
   226   227   234   233
   227   228   235   234
   228   229   236   235
   229   230   237   236
   230   231   238   237
   232   233   240   239
   233   234   241   240
   234   235   242   241
   235   236   243   242
   236   237   244   243
   237   238   245   244
   239   240   247   246
   240   241   248   247
   241   242   249   248
   242   243   250   249
   243   244   251   250
   244   245   252   251
   246   247   254   253
   247   248   255   254
   248   249   256   255
   249   250   257   256
   250   251   258   257
   251   252   259   258
   253   254   261   260
   254   255   262   261
   255   256   263   262
   256   257   264   263
   257   258   265   264
   258   259   266   265
   260   261   268   267
   261   262   269   268
   262   263   270   269
   263   264   271   270
   264   265   272   271
   265   266   273   272
   267   268   275   274
   268   269   276   275
   269   270   277   276
   270   271   278   277
   271   272   279   278
   272   273   280   279
   274   275   282   281
   275   276   283   282
   276   277   284   283
   277   278   285   284
   278   279   286   285
   279   280   287   286
   288   289   302   301
   289   290   303   302
   290   291   304   303
   291   292   305   304
   292   293   306   305
   293   294   307   306
   294   295   308   307
   295   296   309   308
   296   297   310   309
   297   298   311   310
   298   299   312   311
   299   300   313   312
   301   302   315   314
   302   303   316   315
   303   304   317   316
   304   305   318   317
   305   306   319   318
   306   307   320   319
   307   308   321   320
   308   309   322   321
   309   310   323   322
   310   311   324   323
   311   312   325   324
   312   313   326   325
   314   315   328   327
   315   316   329   328
   316   317   330   329
   317   318   331   330
   318   319   332   331
   319   320   333   332
   320   321   334   333
   321   322   335   334
   322   323   336   335
   323   324   337   336
   324   325   338   337
   325   326   339   338
   327   328   341   340
   328   329   342   341
   329   330   343   342
   330   331   344   343
   331   332   345   344
   332   333   346   345
   333   334   347   346
   334   335   348   347
   335   336   349   348
   336   337   350   349
   337   338   351   350
   338   339   352   351
   340   341   354   353
   341   342   355   354
   342   343   356   355
   343   344   357   356
   344   345   358   357
   345   346   359   358
   346   347   360   359
   347   348   361   360
   348   349   362   361
   349   350   363   362
   350   351   364   363
   351   352   365   364
   353   354   367   366
   354   355   368   367
   355   356   369   368
   356   357   370   369
   357   358   371   370
   358   359   372   371
   359   360   373   372
   360   361   374   373
   361   362   375   374
   362   363   376   375
   363   364   377   376
   364   365   378   377
   366   367   380   379
   367   368   381   380
   368   369   382   381
   369   370   383   382
   370   371   384   383
   371   372   385   384
   372   373   386   385
   373   374   387   386
   374   375   388   387
   375   376   389   388
   376   377   390   389
   377   378   391   390


 ZONE T = "AERO - blade2 n=           0 " , STRANDID =            2 
  , SOLUTIONTIME =   0.000000000000000E+000  , F = FEPOINT, N =          391 
  , E =          324  , ET = QUADRILATERAL , C = BLUE , PASSIVEVARLIST=[4-7]
    10.978    18.057   129.112
    10.450    18.651   130.061
     9.944    19.249   131.019
     9.363    19.835   131.943
     8.760    20.417   132.856
     8.183    21.003   133.781
     7.700    21.605   134.751
    11.205    20.742   127.640
    10.710    21.360   128.636
    10.174    21.972   129.614
     9.538    22.567   130.545
     8.878    23.159   131.464
     8.279    23.760   132.412
     7.880    24.395   133.454
    11.416    23.404   126.133
    10.943    24.020   127.129
    10.431    24.630   128.109
     9.821    25.225   129.043
     9.190    25.817   129.968
     8.615    26.417   130.919
     8.222    27.046   131.951
    11.618    26.071   124.651
    11.216    26.686   125.659
    10.738    27.291   126.633
    10.123    27.874   127.548
     9.506    28.458   128.461
     8.949    29.050   129.401
     8.578    29.671   130.422
    11.817    28.736   123.191
    11.424    29.337   124.175
    10.969    29.930   125.133
    10.395    30.505   126.041
     9.817    31.080   126.946
     9.293    31.663   127.875
     8.938    32.270   128.875
    12.033    31.380   121.733
    11.657    31.969   122.698
    11.217    32.550   123.638
    10.665    33.115   124.531
    10.110    33.681   125.424
     9.611    34.253   126.339
     9.278    34.848   127.323
    12.256    34.005   120.283
    11.898    34.582   121.232
    11.468    35.150   122.151
    10.930    35.704   123.027
    10.393    36.258   123.903
     9.914    36.820   124.803
     9.608    37.404   125.772
    12.473    36.610   118.851
    12.123    37.173   119.776
    11.698    37.727   120.672
    11.190    38.270   121.534
    10.672    38.812   122.393
    10.215    39.362   123.275
     9.939    39.934   124.230
    12.683    39.193   117.439
    12.330    39.739   118.334
    11.909    40.277   119.203
    11.440    40.810   120.054
    10.950    41.340   120.896
    10.518    41.877   121.761
    10.273    42.437   122.698
    12.889    41.748   116.046
    12.523    42.276   116.907
    12.108    42.799   117.750
    11.680    43.320   118.588
    11.223    43.838   119.415
    10.822    44.363   120.263
    10.605    44.908   121.181
    13.093    44.270   114.672
    12.710    44.780   115.498
    12.306    45.288   116.317
    11.908    45.797   117.138
    11.492    46.303   117.952
    11.127    46.816   118.786
    10.931    47.346   119.681
    13.297    46.756   113.318
    12.902    47.249   114.113
    12.512    47.743   114.909
    12.137    48.238   115.711
    11.759    48.733   116.512
    11.430    49.233   117.330
    11.249    49.748   118.201
    13.499    49.200   111.986
    13.108    49.679   112.756
    12.737    50.160   113.532
    12.380    50.641   114.314
    12.031    51.124   115.098
    11.729    51.612   115.899
    11.560    52.112   116.746
    13.700    51.601   110.677
    13.332    52.068   111.430
    12.980    52.536   112.188
    12.640    53.005   112.949
    12.309    53.475   113.715
    12.022    53.949   114.495
    11.862    54.435   115.318
    13.898    53.955   109.394
    13.555    54.410   110.131
    13.222    54.865   110.870
    12.899    55.322   111.614
    12.583    55.779   112.359
    12.307    56.240   113.118
    12.155    56.712   113.918
    14.092    56.258   108.139
    13.760    56.700   108.855
    13.444    57.144   109.576
    13.140    57.589   110.302
    12.843    58.034   111.029
    12.585    58.482   111.770
    12.439    58.940   112.547
    14.283    58.508   106.913
    13.939    58.936   107.602
    13.636    59.368   108.305
    13.353    59.801   109.013
    13.085    60.235   109.726
    12.854    60.672   110.451
    12.715    61.116   111.206
    14.470    60.702   105.719
    14.114    61.117   106.382
    13.824    61.536   107.065
    13.561    61.957   107.757
    13.321    62.380   108.456
    13.115    62.806   109.165
    12.982    63.237   109.897
    14.654    62.837   104.559
    14.307    63.239   105.202
    14.032    63.647   105.868
    13.784    64.056   106.542
    13.560    64.467   107.223
    13.369    64.881   107.913
    13.241    65.299   108.623
    14.833    64.909   103.433
    14.506    65.300   104.061
    14.245    65.696   104.709
    14.009    66.094   105.364
    13.795    66.494   106.026
    13.612    66.895   106.698
    13.489    67.301   107.387
    15.009    66.915   102.343
    14.695    67.296   102.954
    14.446    67.681   103.585
    14.220    68.067   104.222
    14.017    68.455   104.867
    13.843    68.845   105.519
    13.727    69.239   106.189
    15.180    68.853   101.290
    14.878    69.223   101.885
    14.639    69.597   102.499
    14.424    69.973   103.119
    14.230    70.350   103.745
    14.065    70.729   104.380
    13.956    71.111   105.031
    15.345    70.721   100.278
    15.055    71.080   100.857
    14.826    71.444   101.453
    14.620    71.808   102.056
    14.435    72.174   102.665
    14.278    72.542   103.281
    14.175    72.913   103.914
    15.504    72.514    99.305
    15.225    72.864    99.868
    15.006    73.217   100.448
    14.809    73.571   101.035
    14.632    73.927   101.626
    14.482    74.284   102.226
    14.385    74.644   102.840
    15.656    74.231    98.374
    15.388    74.571    98.922
    15.177    74.915    99.486
    14.989    75.259   100.057
    14.820    75.605   100.633
    14.677    75.952   101.216
    14.586    76.302   101.813
    15.802    75.869    97.484
    15.544    76.200    98.018
    15.341    76.534    98.568
    15.160    76.870    99.124
    14.998    77.206    99.685
    14.862    77.544   100.253
    14.776    77.885   100.834
    15.942    77.425    96.637
    15.692    77.748    97.159
    15.497    78.074    97.696
    15.323    78.401    98.238
    15.167    78.729    98.785
    15.037    79.058    99.339
    14.955    79.390    99.906
    16.074    78.898    95.834
    15.833    79.213    96.345
    15.645    79.532    96.869
    15.476    79.851    97.399
    15.327    80.171    97.934
    15.202    80.493    98.475
    15.124    80.817    99.029
    16.199    80.286    95.080
    15.965    80.594    95.579
    15.784    80.905    96.091
    15.622    81.216    96.608
    15.478    81.529    97.130
    15.358    81.843    97.659
    15.284    82.159    98.200
    16.314    81.591    94.379
    16.089    81.890    94.864
    15.914    82.192    95.362
    15.759    82.495    95.865
    15.621    82.799    96.373
    15.506    83.104    96.887
    15.437    83.411    97.413
    16.419    82.811    93.734
    16.203    83.101    94.203
    16.037    83.392    94.684
    15.888    83.685    95.171
    15.757    83.978    95.661
    15.648    84.273    96.158
    15.582    84.569    96.666
    16.513    83.949    93.151
    16.308    84.225    93.599
    16.151    84.504    94.059
    16.010    84.783    94.524
    15.886    85.063    94.993
    15.784    85.344    95.467
    15.723    85.627    95.952
    16.595    85.003    92.633
    16.404    85.263    93.055
    16.257    85.525    93.488
    16.126    85.787    93.924
    16.010    86.051    94.365
    15.915    86.315    94.811
    15.859    86.580    95.267
    16.665    85.974    92.183
    16.489    86.213    92.572
    16.354    86.455    92.971
    16.235    86.696    93.373
    16.129    86.939    93.780
    16.042    87.182    94.191
    15.991    87.427    94.611
    16.723    86.857    91.798
    16.564    87.073    92.148
    16.443    87.291    92.509
    16.336    87.510    92.872
    16.241    87.728    93.239
    16.162    87.948    93.610
    16.117    88.169    93.989
    16.771    87.646    91.467
    16.631    87.839    91.780
    16.523    88.033    92.101
    16.427    88.228    92.425
    16.343    88.423    92.752
    16.273    88.618    93.083
    16.233    88.815    93.421
    16.813    88.334    91.184
    16.688    88.506    91.462
    16.592    88.678    91.747
    16.507    88.851    92.035
    16.433    89.024    92.326
    16.371    89.198    92.620
    16.336    89.373    92.920
    16.847    88.920    90.946
    16.736    89.073    91.193
    16.651    89.226    91.447
    16.576    89.380    91.703
    16.510    89.534    91.962
    16.455    89.688    92.223
    16.424    89.844    92.490
    16.874    89.403    90.755
    16.775    89.539    90.975
    16.700    89.675    91.202
    16.633    89.812    91.430
    16.574    89.950    91.660
    16.526    90.088    91.893
    16.498    90.226    92.131
    16.897    89.837    90.592
    16.810    89.956    90.785
    16.744    90.076    90.984
    16.685    90.197    91.184
    16.634    90.317    91.386
    16.591    90.438    91.591
    16.567    90.560    91.800
    16.916    90.279    90.440
    16.844    90.378    90.601
    16.789    90.478    90.767
    16.740    90.579    90.935
    16.697    90.680    91.104
    16.661    90.781    91.275
    16.641    90.882    91.449
     9.499     3.837   137.350
     8.060     3.801   137.034
     6.668     4.139   137.380
     5.696     4.760   138.298
     5.405     5.498   139.539
     5.872     6.155   140.773
     6.972     6.555   141.668
     8.411     6.591   141.985
     9.803     6.253   141.638
    10.775     5.632   140.720
    11.066     4.894   139.479