 TITLE = "Panels' Forces"
 VARIABLES = "X" "Y" "Z" "n(X)" "n(Y)" "n(Z)" "Cp"


 ZONE T = "PanelFRCES - blade1 n=           0 " , STRANDID =           16 
  , SOLUTIONTIME =   0.000000000000000E+000  , ZONETYPE = ORDERED, I = 
         240  , C = PURPLE , PASSIVEVARLIST=[7] , DATAPACKING = POINT
    10.515   -21.831   132.535 -0.190E+04 -0.412E+03  0.374E+03
    10.176   -21.258   131.471 -0.200E+04 -0.453E+03  0.402E+03
     9.786   -20.697   130.419 -0.206E+04 -0.543E+03  0.575E+03
     9.338   -20.149   129.380 -0.197E+04 -0.518E+03  0.604E+03
     8.900   -19.599   128.339 -0.172E+04 -0.397E+03  0.470E+03
     8.564   -19.025   127.274 -0.116E+04 -0.193E+03  0.170E+03
    10.754   -24.463   130.976 -0.191E+04 -0.358E+03  0.339E+03
    10.431   -23.880   129.898 -0.203E+04 -0.432E+03  0.420E+03
    10.034   -23.314   128.836 -0.210E+04 -0.561E+03  0.601E+03
     9.573   -22.762   127.788 -0.201E+04 -0.577E+03  0.607E+03
     9.130   -22.207   126.737 -0.177E+04 -0.471E+03  0.439E+03
     8.820   -21.621   125.656 -0.126E+04 -0.228E+03  0.114E+03
    10.988   -27.099   129.436 -0.182E+04 -0.321E+03  0.257E+03
    10.702   -26.516   128.365 -0.198E+04 -0.432E+03  0.354E+03
    10.324   -25.953   127.312 -0.205E+04 -0.569E+03  0.568E+03
     9.877   -25.405   126.273 -0.198E+04 -0.557E+03  0.570E+03
     9.455   -24.852   125.230 -0.175E+04 -0.447E+03  0.414E+03
     9.161   -24.271   124.159 -0.125E+04 -0.219E+03  0.104E+03
    11.215   -29.718   127.889 -0.172E+04 -0.261E+03  0.208E+03
    10.962   -29.141   126.832 -0.192E+04 -0.357E+03  0.336E+03
    10.604   -28.586   125.797 -0.198E+04 -0.507E+03  0.556E+03
    10.177   -28.045   124.774 -0.192E+04 -0.512E+03  0.534E+03
     9.778   -27.499   123.746 -0.170E+04 -0.419E+03  0.380E+03
     9.504   -26.926   122.694 -0.122E+04 -0.208E+03  0.904E+02
    11.435   -32.327   126.350 -0.163E+04 -0.253E+03  0.186E+03
    11.194   -31.761   125.316 -0.183E+04 -0.343E+03  0.301E+03
    10.859   -31.214   124.299 -0.190E+04 -0.471E+03  0.501E+03
    10.460   -30.680   123.294 -0.185E+04 -0.467E+03  0.487E+03
    10.089   -30.141   122.284 -0.164E+04 -0.377E+03  0.349E+03
     9.836   -29.578   121.252 -0.118E+04 -0.187E+03  0.824E+02
    11.668   -34.920   124.827 -0.153E+04 -0.236E+03  0.162E+03
    11.439   -34.365   123.814 -0.174E+04 -0.327E+03  0.280E+03
    11.115   -33.829   122.818 -0.181E+04 -0.442E+03  0.467E+03
    10.734   -33.305   121.832 -0.176E+04 -0.433E+03  0.453E+03
    10.381   -32.774   120.841 -0.157E+04 -0.345E+03  0.322E+03
    10.148   -32.220   119.829 -0.114E+04 -0.168E+03  0.669E+02
    11.900   -37.493   123.315 -0.144E+04 -0.215E+03  0.149E+03
    11.677   -36.951   122.326 -0.164E+04 -0.304E+03  0.273E+03
    11.365   -36.426   121.351 -0.172E+04 -0.405E+03  0.431E+03
    11.000   -35.911   120.385 -0.168E+04 -0.404E+03  0.422E+03
    10.664   -35.391   119.415 -0.149E+04 -0.321E+03  0.294E+03
    10.452   -34.847   118.423 -0.110E+04 -0.152E+03  0.450E+02
    12.121   -40.041   121.813 -0.136E+04 -0.203E+03  0.150E+03
    11.897   -39.514   120.850 -0.154E+04 -0.282E+03  0.269E+03
    11.600   -39.000   119.898 -0.163E+04 -0.359E+03  0.379E+03
    11.261   -38.495   118.953 -0.159E+04 -0.373E+03  0.384E+03
    10.945   -37.985   118.004 -0.142E+04 -0.297E+03  0.263E+03
    10.757   -37.451   117.035 -0.106E+04 -0.136E+03  0.215E+02
    12.331   -42.560   120.324 -0.127E+04 -0.200E+03  0.161E+03
    12.100   -42.050   119.389 -0.144E+04 -0.264E+03  0.263E+03
    11.822   -41.548   118.461 -0.154E+04 -0.313E+03  0.321E+03
    11.516   -41.052   117.537 -0.150E+04 -0.336E+03  0.340E+03
    11.226   -40.552   116.611 -0.134E+04 -0.270E+03  0.228E+03
    11.063   -40.029   115.666 -0.101E+04 -0.121E+03  0.939E+00
    12.535   -45.048   118.851 -0.119E+04 -0.204E+03  0.179E+03
    12.296   -44.555   117.945 -0.135E+04 -0.248E+03  0.249E+03
    12.036   -44.065   117.041 -0.145E+04 -0.275E+03  0.271E+03
    11.762   -43.578   116.140 -0.141E+04 -0.296E+03  0.289E+03
    11.504   -43.088   115.236 -0.126E+04 -0.241E+03  0.188E+03
    11.367   -42.577   114.315 -0.957E+03 -0.107E+03 -0.139E+02
    12.738   -47.502   117.399 -0.112E+04 -0.208E+03  0.194E+03
    12.493   -47.025   116.520 -0.125E+04 -0.234E+03  0.228E+03
    12.249   -46.547   115.641 -0.135E+04 -0.249E+03  0.231E+03
    12.005   -46.070   114.762 -0.132E+04 -0.260E+03  0.235E+03
    11.781   -45.589   113.880 -0.119E+04 -0.212E+03  0.148E+03
    11.667   -45.089   112.984 -0.899E+03 -0.954E+02 -0.226E+02
    12.946   -49.916   115.968 -0.104E+04 -0.206E+03  0.193E+03
    12.702   -49.454   115.115 -0.116E+04 -0.222E+03  0.202E+03
    12.473   -48.989   114.260 -0.126E+04 -0.234E+03  0.199E+03
    12.252   -48.522   113.404 -0.124E+04 -0.233E+03  0.189E+03
    12.058   -48.051   112.544 -0.111E+04 -0.188E+03  0.115E+03
    11.962   -47.563   111.673 -0.839E+03 -0.857E+02 -0.269E+02
    13.161   -52.288   114.562 -0.957E+03 -0.192E+03  0.173E+03
    12.929   -51.838   113.731 -0.108E+04 -0.209E+03  0.174E+03
    12.714   -51.385   112.900 -0.117E+04 -0.221E+03  0.171E+03
    12.511   -50.930   112.066 -0.115E+04 -0.215E+03  0.157E+03
    12.335   -50.470   111.230 -0.104E+04 -0.171E+03  0.935E+02
    12.251   -49.995   110.383 -0.781E+03 -0.773E+02 -0.285E+02
    13.379   -54.615   113.181 -0.875E+03 -0.169E+03  0.146E+03
    13.166   -54.175   112.372 -0.997E+03 -0.189E+03  0.151E+03
    12.965   -53.733   111.563 -0.108E+04 -0.202E+03  0.150E+03
    12.775   -53.290   110.752 -0.107E+04 -0.197E+03  0.138E+03
    12.610   -52.842   109.939 -0.960E+03 -0.156E+03  0.818E+02
    12.532   -52.380   109.116 -0.724E+03 -0.699E+02 -0.287E+02
    13.590   -56.895   111.828 -0.801E+03 -0.149E+03  0.128E+03
    13.392   -56.466   111.042 -0.922E+03 -0.166E+03  0.134E+03
    13.206   -56.035   110.254 -0.100E+04 -0.176E+03  0.132E+03
    13.029   -55.603   109.465 -0.988E+03 -0.174E+03  0.122E+03
    12.876   -55.166   108.674 -0.889E+03 -0.139E+03  0.705E+02
    12.806   -54.717   107.875 -0.670E+03 -0.631E+02 -0.281E+02
    13.789   -59.125   110.507 -0.739E+03 -0.140E+03  0.128E+03
    13.593   -58.708   109.743 -0.851E+03 -0.143E+03  0.122E+03
    13.422   -58.288   108.976 -0.926E+03 -0.149E+03  0.116E+03
    13.264   -57.866   108.209 -0.916E+03 -0.147E+03  0.101E+03
    13.131   -57.440   107.439 -0.824E+03 -0.120E+03  0.540E+02
    13.071   -57.002   106.662 -0.618E+03 -0.570E+02 -0.270E+02
    13.977   -61.301   109.217 -0.684E+03 -0.139E+03  0.135E+03
    13.779   -60.898   108.475 -0.783E+03 -0.129E+03  0.108E+03
    13.620   -60.489   107.730 -0.853E+03 -0.131E+03  0.955E+02
    13.484   -60.076   106.983 -0.847E+03 -0.125E+03  0.743E+02
    13.375   -59.659   106.234 -0.762E+03 -0.102E+03  0.343E+02
    13.328   -59.233   105.479 -0.569E+03 -0.516E+02 -0.258E+02
    14.168   -63.420   107.960 -0.626E+03 -0.135E+03  0.129E+03
    13.972   -63.028   107.240 -0.717E+03 -0.122E+03  0.912E+02
    13.826   -62.630   106.516 -0.783E+03 -0.123E+03  0.754E+02
    13.706   -62.227   105.790 -0.778E+03 -0.113E+03  0.528E+02
    13.615   -61.821   105.061 -0.701E+03 -0.897E+02  0.203E+02
    13.577   -61.406   104.329 -0.521E+03 -0.468E+02 -0.243E+02
    14.363   -65.476   106.738 -0.567E+03 -0.122E+03  0.113E+03
    14.178   -65.096   106.038 -0.655E+03 -0.112E+03  0.773E+02
    14.042   -64.708   105.335 -0.716E+03 -0.112E+03  0.625E+02
    13.932   -64.316   104.629 -0.712E+03 -0.102E+03  0.422E+02
    13.850   -63.921   103.922 -0.642E+03 -0.798E+02  0.147E+02
    13.817   -63.518   103.211 -0.477E+03 -0.418E+02 -0.227E+02
    14.555   -67.470   105.553 -0.512E+03 -0.108E+03  0.985E+02
    14.381   -67.099   104.873 -0.597E+03 -0.992E+02  0.676E+02
    14.254   -66.722   104.189 -0.653E+03 -0.988E+02  0.545E+02
    14.152   -66.341   103.504 -0.650E+03 -0.898E+02  0.364E+02
    14.076   -65.957   102.817 -0.586E+03 -0.706E+02  0.118E+02
    14.046   -65.566   102.127 -0.436E+03 -0.370E+02 -0.216E+02
    14.740   -69.398   104.407 -0.462E+03 -0.961E+02  0.868E+02
    14.576   -69.038   103.746 -0.543E+03 -0.887E+02  0.590E+02
    14.456   -68.671   103.082 -0.595E+03 -0.882E+02  0.470E+02
    14.360   -68.301   102.417 -0.592E+03 -0.799E+02  0.307E+02
    14.291   -67.927   101.749 -0.534E+03 -0.626E+02  0.858E+01
    14.265   -67.547   101.079 -0.397E+03 -0.327E+02 -0.211E+02
    14.920   -71.258   103.301 -0.416E+03 -0.856E+02  0.763E+02
    14.763   -70.907   102.659 -0.492E+03 -0.794E+02  0.514E+02
    14.651   -70.551   102.014 -0.540E+03 -0.788E+02  0.404E+02
    14.561   -70.191   101.368 -0.538E+03 -0.713E+02  0.256E+02
    14.497   -69.827   100.720 -0.485E+03 -0.557E+02  0.584E+01
    14.476   -69.458   100.069 -0.361E+03 -0.288E+02 -0.206E+02
    15.093   -73.047   102.237 -0.373E+03 -0.759E+02  0.669E+02
    14.944   -72.706   101.613 -0.445E+03 -0.708E+02  0.447E+02
    14.838   -72.359   100.987 -0.488E+03 -0.703E+02  0.347E+02
    14.754   -72.009   100.359 -0.487E+03 -0.635E+02  0.214E+02
    14.695   -71.656    99.730 -0.439E+03 -0.495E+02  0.367E+01
    14.677   -71.297    99.099 -0.327E+03 -0.254E+02 -0.199E+02
    15.259   -74.762   101.217 -0.334E+03 -0.672E+02  0.586E+02
    15.118   -74.430   100.610 -0.401E+03 -0.630E+02  0.389E+02
    15.017   -74.093   100.002 -0.441E+03 -0.625E+02  0.297E+02
    14.939   -73.753    99.392 -0.440E+03 -0.564E+02  0.177E+02
    14.884   -73.409    98.781 -0.397E+03 -0.438E+02  0.192E+01
    14.870   -73.061    98.168 -0.296E+03 -0.223E+02 -0.190E+02
    15.419   -76.402   100.242 -0.299E+03 -0.595E+02  0.513E+02
    15.283   -76.079    99.652 -0.361E+03 -0.560E+02  0.337E+02
    15.189   -75.750    99.060 -0.397E+03 -0.555E+02  0.254E+02
    15.115   -75.419    98.467 -0.397E+03 -0.500E+02  0.146E+02
    15.064   -75.085    97.873 -0.358E+03 -0.388E+02  0.525E+00
    15.053   -74.746    97.277 -0.267E+03 -0.195E+02 -0.180E+02
    15.571   -77.964    99.315 -0.266E+03 -0.525E+02  0.448E+02
    15.441   -77.649    98.740 -0.325E+03 -0.497E+02  0.292E+02
    15.352   -77.329    98.163 -0.358E+03 -0.492E+02  0.217E+02
    15.282   -77.006    97.586 -0.357E+03 -0.443E+02  0.120E+02
    15.235   -76.681    97.007 -0.322E+03 -0.342E+02 -0.562E+00
    15.227   -76.350    96.427 -0.241E+03 -0.170E+02 -0.170E+02
    15.715   -79.447    98.436 -0.237E+03 -0.463E+02  0.392E+02
    15.591   -79.139    97.875 -0.292E+03 -0.440E+02  0.253E+02
    15.506   -78.826    97.312 -0.321E+03 -0.436E+02  0.185E+02
    15.441   -78.511    96.749 -0.321E+03 -0.392E+02  0.980E+01
    15.397   -78.194    96.184 -0.290E+03 -0.302E+02 -0.139E+01
    15.392   -77.871    95.618 -0.216E+03 -0.149E+02 -0.159E+02
    15.852   -80.847    97.605 -0.210E+03 -0.407E+02  0.340E+02
    15.733   -80.546    97.058 -0.260E+03 -0.389E+02  0.218E+02
    15.652   -80.241    96.509 -0.287E+03 -0.385E+02  0.156E+02
    15.590   -79.933    95.959 -0.287E+03 -0.346E+02  0.788E+01
    15.550   -79.623    95.408 -0.259E+03 -0.266E+02 -0.204E+01
    15.547   -79.308    94.856 -0.193E+03 -0.130E+02 -0.148E+02
    15.980   -82.161    96.822 -0.184E+03 -0.355E+02  0.292E+02
    15.867   -81.868    96.289 -0.230E+03 -0.340E+02  0.185E+02
    15.790   -81.570    95.754 -0.254E+03 -0.337E+02  0.130E+02
    15.731   -81.270    95.219 -0.253E+03 -0.302E+02  0.619E+01
    15.694   -80.968    94.682 -0.229E+03 -0.233E+02 -0.251E+01
    15.693   -80.661    94.145 -0.171E+03 -0.114E+02 -0.137E+02
    16.100   -83.385    96.084 -0.159E+03 -0.305E+02  0.246E+02
    15.992   -83.101    95.567 -0.200E+03 -0.294E+02  0.155E+02
    15.919   -82.813    95.049 -0.220E+03 -0.291E+02  0.107E+02
    15.864   -82.522    94.531 -0.220E+03 -0.261E+02  0.471E+01
    15.830   -82.229    94.011 -0.199E+03 -0.201E+02 -0.281E+01
    15.831   -81.932    93.491 -0.149E+03 -0.986E+01 -0.124E+02
    16.211   -84.518    95.390 -0.134E+03 -0.257E+02  0.203E+02
    16.108   -84.245    94.894 -0.169E+03 -0.248E+02  0.126E+02
    16.040   -83.968    94.396 -0.187E+03 -0.246E+02  0.849E+01
    15.989   -83.688    93.898 -0.187E+03 -0.220E+02  0.344E+01
    15.958   -83.407    93.400 -0.169E+03 -0.170E+02 -0.291E+01
    15.961   -83.121    92.900 -0.126E+03 -0.845E+01 -0.110E+02
    16.313   -85.554    94.738 -0.109E+03 -0.210E+02  0.161E+02
    16.217   -85.295    94.268 -0.139E+03 -0.204E+02  0.992E+01
    16.154   -85.032    93.796 -0.153E+03 -0.202E+02  0.653E+01
    16.107   -84.768    93.324 -0.153E+03 -0.181E+02  0.239E+01
    16.079   -84.501    92.852 -0.139E+03 -0.140E+02 -0.280E+01
    16.082   -84.230    92.379 -0.103E+03 -0.711E+01 -0.940E+01
    16.405   -86.492    94.127 -0.851E+02 -0.166E+02  0.123E+02
    16.317   -86.251    93.689 -0.109E+03 -0.162E+02  0.751E+01
    16.259   -86.006    93.250 -0.121E+03 -0.160E+02  0.484E+01
    16.217   -85.760    92.811 -0.121E+03 -0.143E+02  0.158E+01
    16.192   -85.512    92.371 -0.109E+03 -0.111E+02 -0.250E+01
    16.196   -85.260    91.931 -0.814E+02 -0.580E+01 -0.770E+01
    16.489   -87.331    93.559 -0.635E+02 -0.126E+02  0.900E+01
    16.409   -87.111    93.159 -0.821E+02 -0.123E+02  0.546E+01
    16.357   -86.888    92.759 -0.909E+02 -0.121E+02  0.345E+01
    16.319   -86.663    92.358 -0.909E+02 -0.109E+02  0.100E+01
    16.296   -86.436    91.957 -0.821E+02 -0.848E+01 -0.207E+01
    16.301   -86.206    91.555 -0.612E+02 -0.455E+01 -0.598E+01
    16.564   -88.073    93.040 -0.453E+02 -0.904E+01  0.633E+01
    16.492   -87.876    92.681 -0.590E+02 -0.886E+01  0.384E+01
    16.446   -87.676    92.322 -0.654E+02 -0.874E+01  0.239E+01
    16.412   -87.474    91.962 -0.654E+02 -0.786E+01  0.634E+00
    16.392   -87.270    91.602 -0.591E+02 -0.616E+01 -0.158E+01
    16.396   -87.064    91.242 -0.440E+02 -0.336E+01 -0.440E+01
    16.629   -88.722    92.578 -0.311E+02 -0.623E+01  0.432E+01
    16.566   -88.546    92.259 -0.408E+02 -0.614E+01  0.262E+01
    16.524   -88.368    91.939 -0.453E+02 -0.607E+01  0.162E+01
    16.494   -88.188    91.619 -0.454E+02 -0.546E+01  0.402E+00
    16.477   -88.007    91.299 -0.410E+02 -0.428E+01 -0.113E+01
    16.481   -87.823    90.978 -0.305E+02 -0.235E+01 -0.308E+01
    16.685   -89.277    92.178 -0.207E+02 -0.415E+01  0.285E+01
    16.629   -89.121    91.895 -0.273E+02 -0.411E+01  0.173E+01
    16.592   -88.963    91.610 -0.303E+02 -0.406E+01  0.106E+01
    16.566   -88.803    91.326 -0.304E+02 -0.366E+01  0.246E+00
    16.551   -88.642    91.041 -0.274E+02 -0.288E+01 -0.780E+00
    16.555   -88.479    90.756 -0.204E+02 -0.159E+01 -0.209E+01
    16.732   -89.740    91.842 -0.131E+02 -0.265E+01  0.180E+01
    16.682   -89.601    91.589 -0.175E+02 -0.263E+01  0.109E+01
    16.650   -89.460    91.336 -0.194E+02 -0.260E+01  0.665E+00
    16.626   -89.318    91.083 -0.194E+02 -0.235E+01  0.142E+00
    16.613   -89.175    90.830 -0.176E+02 -0.185E+01 -0.515E+00
    16.616   -89.029    90.576 -0.131E+02 -0.104E+01 -0.135E+01
    16.771   -90.132    91.550 -0.880E+01 -0.179E+01  0.119E+01
    16.728   -90.009    91.327 -0.117E+02 -0.178E+01  0.718E+00
    16.699   -89.884    91.103 -0.129E+02 -0.175E+01  0.429E+00
    16.678   -89.758    90.879 -0.130E+02 -0.158E+01  0.794E-01
    16.667   -89.632    90.655 -0.118E+02 -0.126E+01 -0.363E+00
    16.670   -89.503    90.430 -0.881E+01 -0.727E+00 -0.933E+00
    16.809   -90.497    91.268 -0.576E+01 -0.119E+01  0.766E+00
    16.771   -90.392    91.077 -0.747E+01 -0.115E+01  0.448E+00
    16.747   -90.284    90.884 -0.820E+01 -0.113E+01  0.259E+00
    16.729   -90.177    90.692 -0.824E+01 -0.103E+01  0.363E-01
    16.719   -90.068    90.500 -0.760E+01 -0.837E+00 -0.250E+00
    16.722   -89.957    90.307 -0.583E+01 -0.512E+00 -0.638E+00


 ZONE T = "PanelFRCES - blade2 n=           0 " , STRANDID =           17 
  , SOLUTIONTIME =   0.000000000000000E+000  , ZONETYPE = ORDERED, I = 
         240  , C = PURPLE , PASSIVEVARLIST=[7] , DATAPACKING = POINT
    10.836    19.703   128.862 -0.195E+04 -0.281E+03 -0.850E+03
    10.319    20.308   129.832 -0.182E+04 -0.262E+03 -0.817E+03
     9.755    20.906   130.780 -0.180E+04 -0.357E+03 -0.955E+03
     9.135    21.494   131.702 -0.169E+04 -0.379E+03 -0.921E+03
     8.525    22.084   132.628 -0.145E+04 -0.303E+03 -0.717E+03
     8.011    22.690   133.599 -0.886E+03 -0.110E+03 -0.321E+03
    11.068    22.382   127.385 -0.197E+04 -0.279E+03 -0.783E+03
    10.564    22.996   128.372 -0.185E+04 -0.289E+03 -0.812E+03
     9.991    23.599   129.328 -0.183E+04 -0.372E+03 -0.987E+03
     9.357    24.192   130.255 -0.173E+04 -0.358E+03 -0.978E+03
     8.741    24.788   131.191 -0.151E+04 -0.252E+03 -0.774E+03
     8.249    25.404   132.184 -0.100E+04 -0.653E+02 -0.342E+03
    11.298    25.045   125.893 -0.190E+04 -0.216E+03 -0.697E+03
    10.832    25.657   126.882 -0.182E+04 -0.231E+03 -0.777E+03
    10.278    26.255   127.833 -0.180E+04 -0.339E+03 -0.975E+03
     9.660    26.844   128.755 -0.171E+04 -0.337E+03 -0.944E+03
     9.065    27.435   129.687 -0.150E+04 -0.243E+03 -0.744E+03
     8.591    28.046   130.673 -0.100E+04 -0.621E+02 -0.334E+03
    11.519    27.708   124.419 -0.181E+04 -0.196E+03 -0.604E+03
    11.087    28.311   125.400 -0.177E+04 -0.248E+03 -0.700E+03
    10.556    28.900   126.339 -0.174E+04 -0.355E+03 -0.914E+03
     9.960    29.480   127.249 -0.167E+04 -0.326E+03 -0.888E+03
     9.391    30.063   128.171 -0.146E+04 -0.226E+03 -0.704E+03
     8.939    30.663   129.144 -0.982E+03 -0.551E+02 -0.319E+03
    11.733    30.356   122.949 -0.172E+04 -0.172E+03 -0.571E+03
    11.317    30.947   123.911 -0.169E+04 -0.220E+03 -0.662E+03
    10.812    31.525   124.836 -0.169E+04 -0.322E+03 -0.852E+03
    10.247    32.095   125.736 -0.161E+04 -0.305E+03 -0.824E+03
     9.708    32.669   126.646 -0.142E+04 -0.216E+03 -0.651E+03
     9.280    33.259   127.603 -0.955E+03 -0.559E+02 -0.297E+03
    11.961    32.984   121.486 -0.162E+04 -0.151E+03 -0.529E+03
    11.560    33.563   122.430 -0.161E+04 -0.204E+03 -0.627E+03
    11.070    34.130   123.337 -0.161E+04 -0.302E+03 -0.803E+03
    10.524    34.690   124.221 -0.155E+04 -0.288E+03 -0.773E+03
    10.007    35.253   125.117 -0.137E+04 -0.205E+03 -0.607E+03
     9.603    35.831   126.059 -0.930E+03 -0.504E+02 -0.274E+03
    12.187    35.592   120.035 -0.153E+04 -0.142E+03 -0.490E+03
    11.797    36.158   120.958 -0.152E+04 -0.202E+03 -0.593E+03
    11.321    36.713   121.846 -0.154E+04 -0.285E+03 -0.746E+03
    10.796    37.261   122.714 -0.148E+04 -0.271E+03 -0.727E+03
    10.298    37.813   123.594 -0.131E+04 -0.190E+03 -0.568E+03
     9.919    38.380   124.520 -0.907E+03 -0.390E+02 -0.251E+03
    12.402    38.179   118.600 -0.143E+04 -0.142E+03 -0.465E+03
    12.015    38.729   119.496 -0.143E+04 -0.203E+03 -0.561E+03
    11.559    39.271   120.366 -0.147E+04 -0.258E+03 -0.675E+03
    11.063    39.808   121.219 -0.140E+04 -0.250E+03 -0.674E+03
    10.589    40.348   122.081 -0.125E+04 -0.172E+03 -0.527E+03
    10.236    40.903   122.991 -0.881E+03 -0.258E+02 -0.227E+03
    12.606    40.739   117.182 -0.133E+04 -0.148E+03 -0.455E+03
    12.217    41.273   118.049 -0.134E+04 -0.198E+03 -0.531E+03
    11.784    41.802   118.899 -0.140E+04 -0.227E+03 -0.600E+03
    11.323    42.327   119.738 -0.133E+04 -0.225E+03 -0.614E+03
    10.878    42.855   120.584 -0.118E+04 -0.151E+03 -0.482E+03
    10.554    43.396   121.476 -0.849E+03 -0.143E+02 -0.203E+03
    12.804    43.269   115.781 -0.124E+04 -0.155E+03 -0.455E+03
    12.412    43.786   116.618 -0.125E+04 -0.188E+03 -0.500E+03
    12.000    44.301   117.448 -0.132E+04 -0.197E+03 -0.535E+03
    11.576    44.815   118.273 -0.126E+04 -0.197E+03 -0.549E+03
    11.166    45.330   119.104 -0.112E+04 -0.128E+03 -0.433E+03
    10.871    45.858   119.978 -0.811E+03 -0.583E+01 -0.181E+03
    13.000    45.764   114.400 -0.115E+04 -0.159E+03 -0.454E+03
    12.607    46.265   115.209 -0.117E+04 -0.170E+03 -0.467E+03
    12.216    46.766   116.019 -0.124E+04 -0.171E+03 -0.485E+03
    11.824    47.268   116.828 -0.120E+04 -0.164E+03 -0.486E+03
    11.452    47.771   117.645 -0.107E+04 -0.104E+03 -0.384E+03
    11.184    48.286   118.499 -0.768E+03 -0.584E+00 -0.164E+03
    13.201    48.221   113.043 -0.106E+04 -0.153E+03 -0.439E+03
    12.815    48.707   113.827 -0.108E+04 -0.148E+03 -0.433E+03
    12.441    49.195   114.617 -0.116E+04 -0.145E+03 -0.446E+03
    12.077    49.684   115.409 -0.113E+04 -0.133E+03 -0.433E+03
    11.737    50.175   116.210 -0.100E+04 -0.831E+02 -0.341E+03
    11.492    50.676   117.044 -0.721E+03  0.232E+01 -0.148E+03
    13.410    50.637   111.712 -0.979E+03 -0.135E+03 -0.404E+03
    13.039    51.110   112.476 -0.101E+04 -0.124E+03 -0.398E+03
    12.684    51.585   113.246 -0.108E+04 -0.121E+03 -0.412E+03
    12.340    52.061   114.019 -0.105E+04 -0.109E+03 -0.393E+03
    12.023    52.540   114.802 -0.938E+03 -0.691E+02 -0.308E+03
    11.793    53.027   115.614 -0.674E+03  0.379E+01 -0.135E+03
    13.621    53.008   110.408 -0.899E+03 -0.116E+03 -0.357E+03
    13.272    53.470   111.155 -0.934E+03 -0.109E+03 -0.360E+03
    12.935    53.932   111.905 -0.999E+03 -0.106E+03 -0.375E+03
    12.608    54.395   112.659 -0.977E+03 -0.966E+02 -0.359E+03
    12.305    54.861   113.421 -0.872E+03 -0.614E+02 -0.282E+03
    12.086    55.334   114.212 -0.628E+03  0.445E+01 -0.124E+03
    13.826    55.331   109.130 -0.825E+03 -0.104E+03 -0.319E+03
    13.495    55.780   109.858 -0.866E+03 -0.101E+03 -0.323E+03
    13.176    56.230   110.590 -0.928E+03 -0.984E+02 -0.336E+03
    12.866    56.681   111.326 -0.908E+03 -0.887E+02 -0.324E+03
    12.579    57.134   112.069 -0.810E+03 -0.550E+02 -0.255E+03
    12.371    57.594   112.838 -0.583E+03  0.462E+01 -0.113E+03
    14.019    57.601   107.877 -0.757E+03 -0.104E+03 -0.301E+03
    13.695    58.037   108.584 -0.801E+03 -0.967E+02 -0.289E+03
    13.393    58.475   109.299 -0.862E+03 -0.922E+02 -0.296E+03
    13.105    58.914   110.018 -0.845E+03 -0.790E+02 -0.283E+03
    12.842    59.356   110.744 -0.755E+03 -0.460E+02 -0.224E+03
    12.648    59.803   111.493 -0.541E+03  0.459E+01 -0.103E+03
    14.202    59.816   106.654 -0.693E+03 -0.105E+03 -0.294E+03
    13.878    60.239   107.338 -0.738E+03 -0.866E+02 -0.262E+03
    13.594    60.665   108.035 -0.797E+03 -0.789E+02 -0.263E+03
    13.330    61.093   108.738 -0.787E+03 -0.629E+02 -0.245E+03
    13.094    61.523   109.450 -0.703E+03 -0.341E+02 -0.194E+03
    12.916    61.958   110.180 -0.500E+03  0.457E+01 -0.942E+02
    14.386    61.974   105.466 -0.631E+03 -0.974E+02 -0.279E+03
    14.069    62.385   106.129 -0.677E+03 -0.705E+02 -0.240E+03
    13.800    62.799   106.808 -0.734E+03 -0.611E+02 -0.238E+03
    13.557    63.215   107.494 -0.727E+03 -0.462E+02 -0.216E+03
    13.341    63.634   108.189 -0.650E+03 -0.243E+02 -0.170E+03
    13.177    64.056   108.900 -0.460E+03  0.450E+01 -0.861E+02
    14.575    64.071   104.314 -0.572E+03 -0.848E+02 -0.250E+03
    14.272    64.471   104.960 -0.619E+03 -0.592E+02 -0.216E+03
    14.017    64.873   105.621 -0.672E+03 -0.506E+02 -0.214E+03
    13.787    65.278   106.289 -0.667E+03 -0.380E+02 -0.194E+03
    13.584    65.684   106.965 -0.597E+03 -0.202E+02 -0.152E+03
    13.428    66.094   107.655 -0.423E+03  0.403E+01 -0.781E+02
    14.761    66.105   103.198 -0.517E+03 -0.743E+02 -0.221E+03
    14.473    66.493   103.827 -0.566E+03 -0.530E+02 -0.193E+03
    14.230    66.885   104.470 -0.615E+03 -0.457E+02 -0.192E+03
    14.010    67.278   105.120 -0.610E+03 -0.344E+02 -0.174E+03
    13.817    67.672   105.777 -0.546E+03 -0.182E+02 -0.136E+03
    13.668    68.070   106.448 -0.388E+03  0.380E+01 -0.703E+02
    14.941    68.072   102.118 -0.466E+03 -0.656E+02 -0.197E+03
    14.665    68.449   102.731 -0.515E+03 -0.469E+02 -0.174E+03
    14.432    68.830   103.356 -0.561E+03 -0.403E+02 -0.172E+03
    14.223    69.211   103.988 -0.557E+03 -0.302E+02 -0.156E+03
    14.039    69.595   104.628 -0.499E+03 -0.157E+02 -0.122E+03
    13.898    69.981   105.280 -0.355E+03  0.409E+01 -0.630E+02
    15.114    69.969   101.077 -0.419E+03 -0.577E+02 -0.175E+03
    14.850    70.336   101.673 -0.467E+03 -0.412E+02 -0.155E+03
    14.627    70.706   102.282 -0.509E+03 -0.353E+02 -0.154E+03
    14.427    71.076   102.896 -0.506E+03 -0.262E+02 -0.139E+03
    14.252    71.449   103.518 -0.454E+03 -0.132E+02 -0.109E+03
    14.118    71.824   104.151 -0.325E+03  0.443E+01 -0.562E+02
    15.282    71.795   100.077 -0.375E+03 -0.507E+02 -0.155E+03
    15.028    72.151   100.657 -0.423E+03 -0.363E+02 -0.139E+03
    14.815    72.510   101.248 -0.461E+03 -0.309E+02 -0.138E+03
    14.624    72.870   101.845 -0.459E+03 -0.227E+02 -0.125E+03
    14.457    73.232   102.450 -0.412E+03 -0.111E+02 -0.974E+02
    14.330    73.596   103.065 -0.296E+03  0.464E+01 -0.500E+02
    15.443    73.545    99.117 -0.335E+03 -0.445E+02 -0.137E+03
    15.199    73.892    99.681 -0.381E+03 -0.319E+02 -0.124E+03
    14.995    74.240   100.256 -0.417E+03 -0.270E+02 -0.123E+03
    14.812    74.590   100.838 -0.415E+03 -0.197E+02 -0.111E+03
    14.653    74.942   101.425 -0.373E+03 -0.932E+01 -0.868E+02
    14.532    75.296   102.024 -0.269E+03  0.473E+01 -0.444E+02
    15.597    75.218    98.200 -0.299E+03 -0.390E+02 -0.121E+03
    15.363    75.555    98.749 -0.344E+03 -0.280E+02 -0.110E+03
    15.167    75.894    99.309 -0.376E+03 -0.236E+02 -0.109E+03
    14.992    76.235    99.875 -0.375E+03 -0.170E+02 -0.989E+02
    14.839    76.577   100.446 -0.337E+03 -0.778E+01 -0.772E+02
    14.725    76.921   101.029 -0.244E+03  0.471E+01 -0.393E+02
    15.745    76.811    97.325 -0.266E+03 -0.341E+02 -0.107E+03
    15.518    77.139    97.860 -0.309E+03 -0.245E+02 -0.980E+02
    15.330    77.470    98.406 -0.339E+03 -0.206E+02 -0.973E+02
    15.162    77.802    98.958 -0.338E+03 -0.147E+02 -0.880E+02
    15.016    78.134    99.515 -0.304E+03 -0.648E+01 -0.686E+02
    14.907    78.469   100.083 -0.220E+03  0.462E+01 -0.348E+02
    15.885    78.321    96.494 -0.237E+03 -0.299E+02 -0.942E+02
    15.666    78.642    97.017 -0.277E+03 -0.215E+02 -0.870E+02
    15.485    78.964    97.550 -0.305E+03 -0.180E+02 -0.864E+02
    15.323    79.288    98.089 -0.304E+03 -0.127E+02 -0.781E+02
    15.183    79.613    98.633 -0.274E+03 -0.536E+01 -0.608E+02
    15.079    79.940    99.187 -0.199E+03  0.449E+01 -0.308E+02
    16.018    79.748    95.709 -0.209E+03 -0.259E+02 -0.825E+02
    15.806    80.061    96.221 -0.248E+03 -0.187E+02 -0.769E+02
    15.632    80.376    96.742 -0.272E+03 -0.155E+02 -0.764E+02
    15.476    80.692    97.268 -0.272E+03 -0.108E+02 -0.691E+02
    15.341    81.009    97.800 -0.245E+03 -0.433E+01 -0.537E+02
    15.242    81.328    98.341 -0.179E+03  0.438E+01 -0.272E+02
    16.142    81.090    94.975 -0.183E+03 -0.222E+02 -0.716E+02
    15.938    81.395    95.474 -0.219E+03 -0.160E+02 -0.672E+02
    15.770    81.702    95.982 -0.241E+03 -0.132E+02 -0.669E+02
    15.620    82.010    96.494 -0.241E+03 -0.910E+01 -0.604E+02
    15.491    82.319    97.012 -0.217E+03 -0.337E+01 -0.470E+02
    15.396    82.629    97.539 -0.159E+03  0.429E+01 -0.237E+02
    16.256    82.348    94.295 -0.157E+03 -0.186E+02 -0.611E+02
    16.061    82.644    94.778 -0.190E+03 -0.135E+02 -0.579E+02
    15.899    82.941    95.271 -0.209E+03 -0.111E+02 -0.576E+02
    15.756    83.239    95.768 -0.210E+03 -0.746E+01 -0.521E+02
    15.633    83.538    96.270 -0.189E+03 -0.249E+01 -0.405E+02
    15.543    83.839    96.781 -0.139E+03  0.414E+01 -0.205E+02
    16.361    83.522    93.672 -0.132E+03 -0.152E+02 -0.510E+02
    16.175    83.806    94.136 -0.161E+03 -0.110E+02 -0.488E+02
    16.021    84.091    94.609 -0.178E+03 -0.895E+01 -0.486E+02
    15.885    84.377    95.087 -0.178E+03 -0.591E+01 -0.439E+02
    15.769    84.664    95.570 -0.161E+03 -0.170E+01 -0.341E+02
    15.684    84.953    96.060 -0.118E+03  0.395E+01 -0.173E+02
    16.455    84.610    93.109 -0.107E+03 -0.119E+02 -0.413E+02
    16.280    84.879    93.550 -0.132E+03 -0.867E+01 -0.398E+02
    16.136    85.150    93.999 -0.146E+03 -0.697E+01 -0.397E+02
    16.008    85.421    94.451 -0.146E+03 -0.448E+01 -0.358E+02
    15.899    85.693    94.909 -0.132E+03 -0.102E+01 -0.279E+02
    15.820    85.966    95.374 -0.974E+02  0.365E+01 -0.142E+02
    16.538    85.613    92.611 -0.830E+02 -0.891E+01 -0.321E+02
    16.376    85.864    93.021 -0.104E+03 -0.652E+01 -0.312E+02
    16.243    86.116    93.439 -0.115E+03 -0.520E+01 -0.312E+02
    16.125    86.368    93.861 -0.115E+03 -0.324E+01 -0.282E+02
    16.024    86.622    94.286 -0.104E+03 -0.508E+00 -0.220E+02
    15.952    86.876    94.720 -0.770E+02  0.323E+01 -0.113E+02
    16.610    86.529    92.175 -0.616E+02 -0.637E+01 -0.239E+02
    16.463    86.758    92.550 -0.779E+02 -0.468E+01 -0.235E+02
    16.342    86.988    92.931 -0.865E+02 -0.370E+01 -0.234E+02
    16.235    87.218    93.316 -0.868E+02 -0.224E+01 -0.212E+02
    16.143    87.449    93.705 -0.786E+02 -0.169E+00 -0.165E+02
    16.078    87.682    94.100 -0.581E+02  0.269E+01 -0.856E+01
    16.672    87.354    91.798 -0.438E+02 -0.441E+01 -0.170E+02
    16.540    87.559    92.135 -0.560E+02 -0.327E+01 -0.168E+02
    16.432    87.765    92.477 -0.622E+02 -0.257E+01 -0.168E+02
    16.337    87.972    92.822 -0.625E+02 -0.152E+01 -0.152E+02
    16.255    88.179    93.171 -0.566E+02 -0.193E-01 -0.119E+02
    16.196    88.388    93.526 -0.420E+02  0.206E+01 -0.621E+01
    16.726    88.081    91.473 -0.299E+02 -0.298E+01 -0.116E+02
    16.608    88.264    91.772 -0.387E+02 -0.223E+01 -0.116E+02
    16.512    88.447    92.077 -0.431E+02 -0.175E+01 -0.116E+02
    16.427    88.631    92.385 -0.433E+02 -0.102E+01 -0.106E+02
    16.355    88.816    92.695 -0.393E+02  0.239E-01 -0.827E+01
    16.303    89.001    93.011 -0.292E+02  0.148E+01 -0.432E+01
    16.771    88.708    91.196 -0.198E+02 -0.195E+01 -0.767E+01
    16.667    88.871    91.462 -0.259E+02 -0.147E+01 -0.777E+01
    16.582    89.034    91.733 -0.288E+02 -0.115E+01 -0.778E+01
    16.506    89.197    92.006 -0.290E+02 -0.659E+00 -0.706E+01